<?xml version="1.0"?>
<VTKFile type="UnstructuredGrid"  version="0.1"  >
<UnstructuredGrid>
<Piece  NumberOfPoints="1025" NumberOfCells="640">
<Points>
<DataArray  type="Float32"  NumberOfComponents="3"  format="ascii">
0.000000 0.000000 0.000000 
0.750000 0.000000 0.000000 
1.500000 0.000000 0.000000 
2.250000 0.000000 0.000000 
3.000000 0.000000 0.000000 
0.000000 0.750000 0.000000 
0.750000 0.750000 0.000000 
1.500000 0.750000 0.000000 
2.250000 0.750000 0.000000 
3.000000 0.750000 0.000000 
0.000000 1.500000 0.000000 
0.750000 1.500000 0.000000 
1.500000 1.500000 0.000000 
2.250000 1.500000 0.000000 
3.000000 1.500000 0.000000 
0.000000 2.250000 0.000000 
0.750000 2.250000 0.000000 
1.500000 2.250000 0.000000 
2.250000 2.250000 0.000000 
3.000000 2.250000 0.000000 
0.000000 3.000000 0.000000 
0.750000 3.000000 0.000000 
1.500000 3.000000 0.000000 
2.250000 3.000000 0.000000 
3.000000 3.000000 0.000000 
0.000000 0.000000 0.250000 
0.750000 0.000000 0.250000 
1.500000 0.000000 0.250000 
2.250000 0.000000 0.250000 
3.000000 0.000000 0.250000 
0.000000 0.750000 0.250000 
0.750000 0.750000 0.250000 
1.500000 0.750000 0.250000 
2.250000 0.750000 0.250000 
3.000000 0.750000 0.250000 
0.000000 1.500000 0.250000 
0.750000 1.500000 0.250000 
1.500000 1.500000 0.250000 
2.250000 1.500000 0.250000 
3.000000 1.500000 0.250000 
0.000000 2.250000 0.250000 
0.750000 2.250000 0.250000 
1.500000 2.250000 0.250000 
2.250000 2.250000 0.250000 
3.000000 2.250000 0.250000 
0.000000 3.000000 0.250000 
0.750000 3.000000 0.250000 
1.500000 3.000000 0.250000 
2.250000 3.000000 0.250000 
3.000000 3.000000 0.250000 
0.000000 0.000000 0.500000 
0.750000 0.000000 0.500000 
1.500000 0.000000 0.500000 
2.250000 0.000000 0.500000 
3.000000 0.000000 0.500000 
0.000000 0.750000 0.500000 
0.750000 0.750000 0.500000 
1.500000 0.750000 0.500000 
2.250000 0.750000 0.500000 
3.000000 0.750000 0.500000 
0.000000 1.500000 0.500000 
0.750000 1.500000 0.500000 
1.500000 1.500000 0.500000 
2.250000 1.500000 0.500000 
3.000000 1.500000 0.500000 
0.000000 2.250000 0.500000 
0.750000 2.250000 0.500000 
1.500000 2.250000 0.500000 
2.250000 2.250000 0.500000 
3.000000 2.250000 0.500000 
0.000000 3.000000 0.500000 
0.750000 3.000000 0.500000 
1.500000 3.000000 0.500000 
2.250000 3.000000 0.500000 
3.000000 3.000000 0.500000 
0.000000 0.000000 0.750000 
0.750000 0.000000 0.750000 
1.500000 0.000000 0.750000 
2.250000 0.000000 0.750000 
3.000000 0.000000 0.750000 
0.000000 0.750000 0.750000 
0.750000 0.750000 0.750000 
1.500000 0.750000 0.750000 
2.250000 0.750000 0.750000 
3.000000 0.750000 0.750000 
0.000000 1.500000 0.750000 
0.750000 1.500000 0.750000 
1.500000 1.500000 0.750000 
2.250000 1.500000 0.750000 
3.000000 1.500000 0.750000 
0.000000 2.250000 0.750000 
0.750000 2.250000 0.750000 
1.500000 2.250000 0.750000 
2.250000 2.250000 0.750000 
3.000000 2.250000 0.750000 
0.000000 3.000000 0.750000 
0.750000 3.000000 0.750000 
1.500000 3.000000 0.750000 
2.250000 3.000000 0.750000 
3.000000 3.000000 0.750000 
0.000000 0.000000 1.000000 
0.750000 0.000000 1.000000 
1.500000 0.000000 1.000000 
2.250000 0.000000 1.000000 
3.000000 0.000000 1.000000 
0.000000 0.750000 1.000000 
0.750000 0.750000 1.000000 
1.500000 0.750000 1.000000 
2.250000 0.750000 1.000000 
3.000000 0.750000 1.000000 
0.000000 1.500000 1.000000 
0.750000 1.500000 1.000000 
1.500000 1.500000 1.000000 
2.250000 1.500000 1.000000 
3.000000 1.500000 1.000000 
0.000000 2.250000 1.000000 
0.750000 2.250000 1.000000 
1.500000 2.250000 1.000000 
2.250000 2.250000 1.000000 
3.000000 2.250000 1.000000 
0.000000 3.000000 1.000000 
0.750000 3.000000 1.000000 
1.500000 3.000000 1.000000 
2.250000 3.000000 1.000000 
3.000000 3.000000 1.000000 
0.000000 0.000000 1.250000 
0.750000 0.000000 1.250000 
1.500000 0.000000 1.250000 
2.250000 0.000000 1.250000 
3.000000 0.000000 1.250000 
0.000000 0.750000 1.250000 
0.750000 0.750000 1.250000 
1.500000 0.750000 1.250000 
2.250000 0.750000 1.250000 
3.000000 0.750000 1.250000 
0.000000 1.500000 1.250000 
0.750000 1.500000 1.250000 
1.500000 1.500000 1.250000 
2.250000 1.500000 1.250000 
3.000000 1.500000 1.250000 
0.000000 2.250000 1.250000 
0.750000 2.250000 1.250000 
1.500000 2.250000 1.250000 
2.250000 2.250000 1.250000 
3.000000 2.250000 1.250000 
0.000000 3.000000 1.250000 
0.750000 3.000000 1.250000 
1.500000 3.000000 1.250000 
2.250000 3.000000 1.250000 
3.000000 3.000000 1.250000 
0.000000 0.000000 1.500000 
0.750000 0.000000 1.500000 
1.500000 0.000000 1.500000 
2.250000 0.000000 1.500000 
3.000000 0.000000 1.500000 
0.000000 0.750000 1.500000 
0.750000 0.750000 1.500000 
1.500000 0.750000 1.500000 
2.250000 0.750000 1.500000 
3.000000 0.750000 1.500000 
0.000000 1.500000 1.500000 
0.750000 1.500000 1.500000 
1.500000 1.500000 1.500000 
2.250000 1.500000 1.500000 
3.000000 1.500000 1.500000 
0.000000 2.250000 1.500000 
0.750000 2.250000 1.500000 
1.500000 2.250000 1.500000 
2.250000 2.250000 1.500000 
3.000000 2.250000 1.500000 
0.000000 3.000000 1.500000 
0.750000 3.000000 1.500000 
1.500000 3.000000 1.500000 
2.250000 3.000000 1.500000 
3.000000 3.000000 1.500000 
0.000000 0.000000 1.750000 
0.750000 0.000000 1.750000 
1.500000 0.000000 1.750000 
2.250000 0.000000 1.750000 
3.000000 0.000000 1.750000 
0.000000 0.750000 1.750000 
0.750000 0.750000 1.750000 
1.500000 0.750000 1.750000 
2.250000 0.750000 1.750000 
3.000000 0.750000 1.750000 
0.000000 1.500000 1.750000 
0.750000 1.500000 1.750000 
1.500000 1.500000 1.750000 
2.250000 1.500000 1.750000 
3.000000 1.500000 1.750000 
0.000000 2.250000 1.750000 
0.750000 2.250000 1.750000 
1.500000 2.250000 1.750000 
2.250000 2.250000 1.750000 
3.000000 2.250000 1.750000 
0.000000 3.000000 1.750000 
0.750000 3.000000 1.750000 
1.500000 3.000000 1.750000 
2.250000 3.000000 1.750000 
3.000000 3.000000 1.750000 
0.000000 0.000000 2.000000 
0.750000 0.000000 2.000000 
1.500000 0.000000 2.000000 
2.250000 0.000000 2.000000 
3.000000 0.000000 2.000000 
0.000000 0.750000 2.000000 
0.750000 0.750000 2.000000 
1.500000 0.750000 2.000000 
2.250000 0.750000 2.000000 
3.000000 0.750000 2.000000 
0.000000 1.500000 2.000000 
0.750000 1.500000 2.000000 
1.500000 1.500000 2.000000 
2.250000 1.500000 2.000000 
3.000000 1.500000 2.000000 
0.000000 2.250000 2.000000 
0.750000 2.250000 2.000000 
1.500000 2.250000 2.000000 
2.250000 2.250000 2.000000 
3.000000 2.250000 2.000000 
0.000000 3.000000 2.000000 
0.750000 3.000000 2.000000 
1.500000 3.000000 2.000000 
2.250000 3.000000 2.000000 
3.000000 3.000000 2.000000 
0.000000 0.000000 2.250000 
0.750000 0.000000 2.250000 
1.500000 0.000000 2.250000 
2.250000 0.000000 2.250000 
3.000000 0.000000 2.250000 
0.000000 0.750000 2.250000 
0.750000 0.750000 2.250000 
1.500000 0.750000 2.250000 
2.250000 0.750000 2.250000 
3.000000 0.750000 2.250000 
0.000000 1.500000 2.250000 
0.750000 1.500000 2.250000 
1.500000 1.500000 2.250000 
2.250000 1.500000 2.250000 
3.000000 1.500000 2.250000 
0.000000 2.250000 2.250000 
0.750000 2.250000 2.250000 
1.500000 2.250000 2.250000 
2.250000 2.250000 2.250000 
3.000000 2.250000 2.250000 
0.000000 3.000000 2.250000 
0.750000 3.000000 2.250000 
1.500000 3.000000 2.250000 
2.250000 3.000000 2.250000 
3.000000 3.000000 2.250000 
0.000000 0.000000 2.500000 
0.750000 0.000000 2.500000 
1.500000 0.000000 2.500000 
2.250000 0.000000 2.500000 
3.000000 0.000000 2.500000 
0.000000 0.750000 2.500000 
0.750000 0.750000 2.500000 
1.500000 0.750000 2.500000 
2.250000 0.750000 2.500000 
3.000000 0.750000 2.500000 
0.000000 1.500000 2.500000 
0.750000 1.500000 2.500000 
1.500000 1.500000 2.500000 
2.250000 1.500000 2.500000 
3.000000 1.500000 2.500000 
0.000000 2.250000 2.500000 
0.750000 2.250000 2.500000 
1.500000 2.250000 2.500000 
2.250000 2.250000 2.500000 
3.000000 2.250000 2.500000 
0.000000 3.000000 2.500000 
0.750000 3.000000 2.500000 
1.500000 3.000000 2.500000 
2.250000 3.000000 2.500000 
3.000000 3.000000 2.500000 
0.000000 0.000000 2.750000 
0.750000 0.000000 2.750000 
1.500000 0.000000 2.750000 
2.250000 0.000000 2.750000 
3.000000 0.000000 2.750000 
0.000000 0.750000 2.750000 
0.750000 0.750000 2.750000 
1.500000 0.750000 2.750000 
2.250000 0.750000 2.750000 
3.000000 0.750000 2.750000 
0.000000 1.500000 2.750000 
0.750000 1.500000 2.750000 
1.500000 1.500000 2.750000 
2.250000 1.500000 2.750000 
3.000000 1.500000 2.750000 
0.000000 2.250000 2.750000 
0.750000 2.250000 2.750000 
1.500000 2.250000 2.750000 
2.250000 2.250000 2.750000 
3.000000 2.250000 2.750000 
0.000000 3.000000 2.750000 
0.750000 3.000000 2.750000 
1.500000 3.000000 2.750000 
2.250000 3.000000 2.750000 
3.000000 3.000000 2.750000 
0.000000 0.000000 3.000000 
0.750000 0.000000 3.000000 
1.500000 0.000000 3.000000 
2.250000 0.000000 3.000000 
3.000000 0.000000 3.000000 
0.000000 0.750000 3.000000 
0.750000 0.750000 3.000000 
1.500000 0.750000 3.000000 
2.250000 0.750000 3.000000 
3.000000 0.750000 3.000000 
0.000000 1.500000 3.000000 
0.750000 1.500000 3.000000 
1.500000 1.500000 3.000000 
2.250000 1.500000 3.000000 
3.000000 1.500000 3.000000 
0.000000 2.250000 3.000000 
0.750000 2.250000 3.000000 
1.500000 2.250000 3.000000 
2.250000 2.250000 3.000000 
3.000000 2.250000 3.000000 
0.000000 3.000000 3.000000 
0.750000 3.000000 3.000000 
1.500000 3.000000 3.000000 
2.250000 3.000000 3.000000 
3.000000 3.000000 3.000000 
0.000000 0.000000 3.250000 
0.750000 0.000000 3.250000 
1.500000 0.000000 3.250000 
2.250000 0.000000 3.250000 
3.000000 0.000000 3.250000 
0.000000 0.750000 3.250000 
0.750000 0.750000 3.250000 
1.500000 0.750000 3.250000 
2.250000 0.750000 3.250000 
3.000000 0.750000 3.250000 
0.000000 1.500000 3.250000 
0.750000 1.500000 3.250000 
1.500000 1.500000 3.250000 
2.250000 1.500000 3.250000 
3.000000 1.500000 3.250000 
0.000000 2.250000 3.250000 
0.750000 2.250000 3.250000 
1.500000 2.250000 3.250000 
2.250000 2.250000 3.250000 
3.000000 2.250000 3.250000 
0.000000 3.000000 3.250000 
0.750000 3.000000 3.250000 
1.500000 3.000000 3.250000 
2.250000 3.000000 3.250000 
[...]
<PointData  Scalars="u">
<DataArray  type="Float32"  Name="VectorField1"  NumberOfComponents="3" format="ascii">
0.000000 0.000000 0.000000 
0.000000 0.000000 0.000000 
0.000000 0.000000 0.000000 
0.000000 0.000000 0.000000 
0.000000 0.000000 0.000000 
0.000000 0.000000 0.000000 
0.000000 0.000000 0.000000 
0.000000 0.000000 0.000000 
0.000000 0.000000 0.000000 
0.000000 0.000000 0.000000 
0.000000 0.000000 0.000000 
0.000000 0.000000 0.000000 
0.000000 0.000000 0.000000 
0.000000 0.000000 0.000000 
0.000000 0.000000 0.000000 
0.000000 0.000000 0.000000 
0.000000 0.000000 0.000000 
0.000000 0.000000 0.000000 
0.000000 0.000000 0.000000 
0.000000 0.000000 0.000000 
0.000000 0.000000 0.000000 
0.000000 0.000000 0.000000 
0.000000 0.000000 0.000000 
0.000000 0.000000 0.000000 
0.000000 0.000000 0.000000 
0.000182 0.000193 0.000713 
0.000047 0.000233 0.000662 
0.000000 0.000241 0.000678 
-0.000047 0.000233 0.000662 
-0.000182 0.000193 0.000713 
0.000091 0.000067 0.000313 
0.000024 0.000111 0.000274 
0.000000 0.000116 0.000278 
-0.000024 0.000111 0.000274 
-0.000091 0.000067 0.000313 
-0.000000 0.000059 -0.000000 
-0.000000 0.000105 -0.000000 
0.000000 0.000112 -0.000000 
0.000000 0.000105 -0.000000 
0.000000 0.000059 -0.000000 
-0.000091 0.000067 -0.000313 
-0.000024 0.000111 -0.000274 
-0.000000 0.000116 -0.000278 
0.000024 0.000111 -0.000274 
0.000091 0.000067 -0.000313 
-0.000182 0.000193 -0.000713 
-0.000047 0.000233 -0.000662 
-0.000000 0.000241 -0.000678 
0.000047 0.000233 -0.000662 
0.000182 0.000193 -0.000713 
0.000273 0.000436 0.001363 
0.000099 0.000512 0.001307 
0.000000 0.000529 0.001317 
-0.000099 0.000512 0.001307 
-0.000273 0.000436 0.001363 
0.000142 0.000281 0.000622 
0.000052 0.000356 0.000576 
0.000000 0.000370 0.000574 
-0.000052 0.000356 0.000576 
-0.000142 0.000281 0.000622 
-0.000000 0.000246 -0.000000 
0.000000 0.000324 -0.000000 
0.000000 0.000338 -0.000000 
0.000000 0.000324 -0.000000 
0.000000 0.000246 -0.000000 
-0.000142 0.000281 -0.000622 
-0.000052 0.000356 -0.000576 
0.000000 0.000370 -0.000574 
0.000052 0.000356 -0.000576 
0.000142 0.000281 -0.000622 
-0.000273 0.000436 -0.001363 
-0.000099 0.000512 -0.001307 
-0.000000 0.000529 -0.001317 
0.000099 0.000512 -0.001307 
0.000273 0.000436 -0.001363 
0.000326 0.000773 0.001979 
0.000137 0.000873 0.001933 
0.000000 0.000899 0.001935 
-0.000137 0.000873 0.001933 
-0.000326 0.000773 0.001979 
0.000171 0.000609 0.000923 
0.000073 0.000707 0.000883 
0.000000 0.000729 0.000877 
-0.000073 0.000707 0.000883 
-0.000171 0.000609 0.000923 
0.000000 0.000561 -0.000000 
0.000000 0.000661 -0.000000 
0.000000 0.000682 -0.000000 
0.000000 0.000661 -0.000000 
0.000000 0.000561 -0.000000 
-0.000171 0.000609 -0.000923 
-0.000073 0.000707 -0.000883 
0.000000 0.000729 -0.000877 
0.000073 0.000707 -0.000883 
0.000171 0.000609 -0.000923 
-0.000326 0.000773 -0.001979 
-0.000137 0.000873 -0.001933 
0.000000 0.000899 -0.001935 
0.000137 0.000873 -0.001933 
0.000326 0.000773 -0.001979 
0.000358 0.001210 0.002574 
0.000162 0.001326 0.002540 
0.000000 0.001359 0.002539 
-0.000162 0.001326 0.002540 
-0.000358 0.001210 0.002574 
0.000187 0.001045 0.001216 
0.000086 0.001159 0.001187 
0.000000 0.001188 0.001180 
-0.000086 0.001159 0.001187 
-0.000187 0.001045 0.001216 
0.000000 0.000992 -0.000000 
0.000000 0.001107 -0.000000 
0.000000 0.001135 -0.000000 
0.000000 0.001107 -0.000000 
0.000000 0.000992 -0.000000 
-0.000187 0.001045 -0.001216 
-0.000086 0.001159 -0.001187 
0.000000 0.001188 -0.001180 
0.000086 0.001159 -0.001187 
0.000187 0.001045 -0.001216 
-0.000358 0.001211 -0.002574 
-0.000162 0.001326 -0.002540 
0.000000 0.001359 -0.002539 
0.000162 0.001326 -0.002540 
0.000358 0.001211 -0.002574 
0.000374 0.001748 0.003152 
0.000177 0.001873 0.003131 
0.000000 0.001911 0.003127 
-0.000177 0.001873 0.003131 
-0.000374 0.001748 0.003152 
0.000196 0.001585 0.001503 
0.000093 0.001709 0.001484 
0.000000 0.001744 0.001477 
-0.000093 0.001709 0.001484 
-0.000196 0.001585 0.001503 
0.000000 0.001530 -0.000000 
0.000000 0.001656 -0.000000 
0.000000 0.001689 -0.000000 
0.000000 0.001656 -0.000000 
0.000000 0.001530 -0.000000 
-0.000196 0.001585 -0.001503 
-0.000093 0.001709 -0.001484 
0.000000 0.001744 -0.001477 
0.000093 0.001709 -0.001484 
0.000196 0.001585 -0.001503 
-0.000374 0.001748 -0.003152 
-0.000177 0.001873 -0.003131 
0.000000 0.001911 -0.003127 
0.000177 0.001873 -0.003131 
0.000374 0.001748 -0.003152 
0.000381 0.002383 0.003716 
0.000185 0.002515 0.003704 
0.000000 0.002555 0.003701 
-0.000185 0.002515 0.003704 
-0.000381 0.002383 0.003716 
0.000198 0.002224 0.001783 
0.000096 0.002355 0.001772 
0.000000 0.002393 0.001767 
-0.000096 0.002355 0.001772 
-0.000198 0.002224 0.001783 
0.000000 0.002170 -0.000000 
0.000000 0.002302 -0.000000 
0.000000 0.002339 -0.000000 
0.000000 0.002302 -0.000000 
0.000000 0.002170 -0.000000 
-0.000198 0.002224 -0.001783 
-0.000096 0.002355 -0.001772 
0.000000 0.002393 -0.001767 
0.000096 0.002355 -0.001772 
0.000198 0.002224 -0.001783 
-0.000381 0.002383 -0.003716 
-0.000185 0.002515 -0.003704 
0.000000 0.002555 -0.003701 
0.000185 0.002515 -0.003704 
0.000381 0.002383 -0.003716 
0.000381 0.003115 0.004265 
0.000188 0.003249 0.004262 
0.000000 0.003292 0.004259 
-0.000188 0.003249 0.004261 
-0.000381 0.003115 0.004265 
0.000198 0.002960 0.002055 
0.000097 0.003094 0.002052 
0.000000 0.003135 0.002048 
-0.000097 0.003094 0.002052 
-0.000198 0.002960 0.002055 
0.000000 0.002907 -0.000000 
0.000000 0.003043 -0.000000 
0.000000 0.003082 -0.000000 
0.000000 0.003043 -0.000000 
0.000000 0.002907 -0.000000 
-0.000198 0.002960 -0.002055 
-0.000097 0.003094 -0.002052 
0.000000 0.003135 -0.002048 
0.000097 0.003094 -0.002052 
0.000198 0.002960 -0.002055 
-0.000381 0.003115 -0.004265 
-0.000188 0.003249 -0.004262 
0.000000 0.003292 -0.004259 
0.000188 0.003249 -0.004262 
0.000381 0.003115 -0.004265 
0.000377 0.003940 0.004799 
0.000187 0.004074 0.004802 
0.000000 0.004118 0.004800 
-0.000187 0.004074 0.004802 
-0.000377 0.003940 0.004799 
0.000195 0.003789 0.002321 
0.000096 0.003924 0.002323 
0.000000 0.003966 0.002321 
-0.000096 0.003924 0.002323 
-0.000195 0.003789 0.002321 
0.000000 0.003738 -0.000000 
0.000000 0.003874 -0.000000 
0.000000 0.003915 -0.000000 
0.000000 0.003874 -0.000000 
0.000000 0.003738 -0.000000 
-0.000195 0.003789 -0.002321 
-0.000096 0.003924 -0.002323 
0.000000 0.003966 -0.002321 
0.000096 0.003924 -0.002323 
0.000195 0.003789 -0.002321 
-0.000377 0.003940 -0.004799 
-0.000187 0.004074 -0.004802 
0.000000 0.004118 -0.004800 
0.000187 0.004074 -0.004802 
0.000377 0.003940 -0.004799 
0.000370 0.004854 0.005319 
0.000184 0.004988 0.005326 
0.000000 0.005031 0.005325 
-0.000184 0.004988 0.005326 
-0.000370 0.004854 0.005319 
0.000190 0.004708 0.002580 
0.000095 0.004842 0.002585 
0.000000 0.004885 0.002584 
-0.000094 0.004842 0.002585 
-0.000190 0.004708 0.002580 
0.000000 0.004659 -0.000000 
0.000000 0.004794 -0.000000 
0.000000 0.004836 -0.000000 
0.000000 0.004794 -0.000000 
0.000000 0.004659 -0.000000 
-0.000190 0.004708 -0.002580 
-0.000094 0.004842 -0.002585 
0.000000 0.004885 -0.002584 
0.000095 0.004842 -0.002585 
0.000190 0.004708 -0.002580 
-0.000370 0.004854 -0.005319 
-0.000184 0.004988 -0.005326 
0.000000 0.005031 -0.005325 
0.000184 0.004988 -0.005326 
0.000370 0.004854 -0.005319 
0.000361 0.005856 0.005824 
0.000181 0.005987 0.005834 
0.000000 0.006030 0.005833 
-0.000181 0.005987 0.005834 
-0.000361 0.005856 0.005824 
0.000185 0.005714 0.002831 
0.000092 0.005846 0.002839 
0.000000 0.005889 0.002839 
-0.000092 0.005846 0.002839 
-0.000185 0.005714 0.002831 
0.000000 0.005666 -0.000000 
0.000000 0.005800 -0.000000 
0.000000 0.005842 -0.000000 
0.000000 0.005800 -0.000000 
0.000000 0.005666 -0.000000 
-0.000185 0.005714 -0.002831 
-0.000092 0.005846 -0.002839 
0.000000 0.005889 -0.002839 
0.000092 0.005846 -0.002839 
0.000185 0.005714 -0.002831 
-0.000361 0.005856 -0.005824 
-0.000181 0.005987 -0.005834 
0.000000 0.006030 -0.005833 
0.000181 0.005987 -0.005834 
0.000361 0.005856 -0.005824 
0.000351 0.006941 0.006313 
0.000176 0.007069 0.006325 
0.000000 0.007112 0.006325 
-0.000176 0.007069 0.006325 
-0.000351 0.006941 0.006313 
0.000180 0.006804 0.003075 
0.000089 0.006934 0.003085 
0.000000 0.006976 0.003086 
-0.000089 0.006934 0.003085 
-0.000180 0.006804 0.003075 
0.000000 0.006758 -0.000000 
0.000000 0.006889 -0.000000 
0.000000 0.006930 -0.000000 
0.000000 0.006889 -0.000000 
0.000000 0.006758 -0.000000 
-0.000180 0.006804 -0.003075 
-0.000089 0.006934 -0.003085 
0.000000 0.006976 -0.003086 
0.000089 0.006934 -0.003085 
0.000180 0.006804 -0.003075 
-0.000351 0.006941 -0.006313 
-0.000176 0.007069 -0.006325 
0.000000 0.007112 -0.006325 
0.000176 0.007069 -0.006325 
0.000351 0.006941 -0.006313 
0.000340 0.008107 0.006786 
0.000170 0.008232 0.006799 
0.000000 0.008274 0.006800 
-0.000170 0.008232 0.006799 
-0.000340 0.008107 0.006786 
0.000174 0.007975 0.003311 
0.000086 0.008101 0.003322 
0.000000 0.008142 0.003324 
-0.000086 0.008101 0.003322 
-0.000174 0.007975 0.003311 
0.000000 0.007930 -0.000000 
0.000000 0.008058 -0.000000 
0.000000 0.008099 -0.000000 
0.000000 0.008058 -0.000000 
0.000000 0.007930 -0.000000 
-0.000174 0.007975 -0.003311 
-0.000086 0.008101 -0.003322 
0.000000 0.008142 -0.003324 
0.000086 0.008101 -0.003322 
0.000174 0.007975 -0.003311 
-0.000340 0.008107 -0.006786 
-0.000170 0.008232 -0.006800 
0.000000 0.008274 -0.006800 
0.000170 0.008232 -0.006800 
0.000340 0.008107 -0.006786 
0.000328 0.009351 0.007243 
0.000165 0.009473 0.007258 
0.000000 0.009513 0.007258 
-0.000165 0.009473 0.007258 
-0.000328 0.009351 0.007243 
0.000168 0.009224 0.003539 
0.000083 0.009346 0.003551 
0.000000 0.009387 0.003553 
-0.000083 0.009346 0.003551 
-0.000168 0.009224 0.003539 
0.000000 0.009181 -0.000000 
0.000000 0.009304 -0.000000 
0.000000 0.009344 -0.000000 
0.000000 0.009304 -0.000000 
0.000000 0.009181 -0.000000 
-0.000168 0.009224 -0.003540 
-0.000083 0.009346 -0.003551 
0.000000 0.009387 -0.003553 
0.000083 0.009346 -0.003551 
0.000168 0.009224 -0.003540 
-0.000328 0.009351 -0.007243 
-0.000165 0.009473 -0.007258 
0.000000 0.009513 -0.007259 
0.000165 0.009473 -0.007258 
0.000328 0.009351 -0.007243 
0.000317 0.010671 0.007684 
0.000159 0.010788 0.007699 
0.000000 0.010828 0.007700 
-0.000159 0.010788 0.007699 
-0.000317 0.010671 0.007684 
0.000162 0.010548 0.003760 
0.000080 0.010666 0.003772 
0.000000 0.010706 0.003774 
-0.000080 0.010666 0.003772 
-0.000162 0.010548 0.003760 
0.000000 0.010507 -0.000000 
0.000000 0.010626 -0.000000 
0.000000 0.010665 -0.000000 
0.000000 0.010626 -0.000000 
0.000000 0.010507 -0.000000 
-0.000162 0.010548 -0.003760 
-0.000080 0.010666 -0.003772 
0.000000 0.010706 -0.003774 
0.000080 0.010666 -0.003772 
0.000162 0.010548 -0.003760 
-0.000317 0.010671 -0.007684 
-0.000159 0.010788 -0.007699 
0.000000 0.010828 -0.007700 
0.000159 0.010788 -0.007699 
0.000317 0.010671 -0.007684 
0.000305 0.012063 0.008109 
0.000153 0.012176 0.008124 
0.000000 0.012214 0.008126 
-0.000153 0.012176 0.008124 
-0.000305 0.012063 0.008109 
0.000156 0.011945 0.003972 
0.000077 0.012059 0.003984 
0.000000 0.012097 0.003987 
-0.000077 0.012059 0.003984 
-0.000155 0.011945 0.003972 
0.000000 0.011905 -0.000000 
0.000000 0.012020 -0.000000 
0.000000 0.012058 -0.000000 
0.000000 0.012020 -0.000000 
0.000000 0.011905 -0.000000 
-0.000155 0.011945 -0.003972 
-0.000077 0.012059 -0.003984 
0.000000 0.012097 -0.003987 
0.000077 0.012059 -0.003984 
0.000156 0.011945 -0.003972 
-0.000305 0.012063 -0.008109 
-0.000153 0.012176 -0.008124 
0.000000 0.012214 -0.008126 
0.000153 0.012176 -0.008124 
0.000305 0.012063 -0.008109 
0.000293 0.013524 0.008517 
0.000147 0.013633 0.008533 
0.000000 0.013670 0.008535 
-0.000147 0.013633 0.008533 
-0.000293 0.013524 0.008517 
0.000149 0.013411 0.004176 
0.000074 0.013521 0.004188 
0.000000 0.013557 0.004191 
-0.000074 0.013521 0.004188 
-0.000149 0.013411 0.004176 
0.000000 0.013373 -0.000000 
0.000000 0.013483 -0.000000 
0.000000 0.013520 -0.000000 
0.000000 0.013483 -0.000000 
0.000000 0.013373 -0.000000 
-0.000149 0.013411 -0.004176 
-0.000074 0.013521 -0.004189 
0.000000 0.013557 -0.004192 
0.000074 0.013521 -0.004189 
0.000149 0.013411 -0.004176 
-0.000293 0.013524 -0.008517 
-0.000147 0.013633 -0.008533 
0.000000 0.013670 -0.008535 
0.000147 0.013633 -0.008533 
0.000293 0.013524 -0.008518 
0.000281 0.015053 0.008910 
0.000141 0.015157 0.008925 
0.000000 0.015193 0.008927 
-0.000141 0.015157 0.008925 
-0.000281 0.015053 0.008909 
0.000143 0.014944 0.004372 
0.000071 0.015049 0.004385 
0.000000 0.015084 0.004388 
-0.000071 0.015049 0.004385 
-0.000143 0.014944 0.004372 
0.000000 0.014907 -0.000000 
0.000000 0.015014 -0.000000 
0.000000 0.015048 -0.000000 
0.000000 0.015014 -0.000000 
0.000000 0.014907 -0.000000 
-0.000143 0.014944 -0.004372 
-0.000071 0.015049 -0.004385 
0.000000 0.015084 -0.004388 
0.000071 0.015049 -0.004385 
0.000143 0.014944 -0.004372 
-0.000281 0.015053 -0.008910 
-0.000141 0.015157 -0.008925 
0.000000 0.015193 -0.008927 
0.000141 0.015157 -0.008926 
0.000281 0.015053 -0.008910 
0.000269 0.016645 0.009285 
0.000135 0.016745 0.009301 
0.000000 0.016779 0.009303 
-0.000135 0.016745 0.009301 
-0.000269 0.016645 0.009285 
0.000137 0.016541 0.004560 
0.000068 0.016642 0.004572 
0.000000 0.016676 0.004575 
-0.000068 0.016642 0.004572 
-0.000137 0.016541 0.004560 
0.000000 0.016506 -0.000000 
0.000000 0.016608 -0.000000 
0.000000 0.016641 -0.000000 
0.000000 0.016608 -0.000000 
0.000000 0.016506 -0.000000 
-0.000137 0.016541 -0.004560 
-0.000068 0.016642 -0.004573 
0.000000 0.016676 -0.004576 
0.000068 0.016642 -0.004573 
0.000137 0.016541 -0.004560 
-0.000269 0.016645 -0.009285 
-0.000135 0.016745 -0.009301 
0.000000 0.016779 -0.009303 
0.000135 0.016745 -0.009301 
0.000269 0.016645 -0.009285 
0.000257 0.018299 0.009645 
0.000129 0.018395 0.009661 
0.000000 0.018427 0.009662 
-0.000129 0.018395 0.009661 
-0.000257 0.018299 0.009645 
0.000131 0.018200 0.004739 
0.000065 0.018296 0.004752 
0.000000 0.018328 0.004755 
-0.000065 0.018296 0.004752 
-0.000131 0.018200 0.004739 
0.000000 0.018166 -0.000000 
0.000000 0.018263 -0.000000 
0.000000 0.018295 -0.000000 
0.000000 0.018263 -0.000000 
0.000000 0.018166 -0.000000 
-0.000131 0.018200 -0.004739 
-0.000065 0.018296 -0.004752 
0.000000 0.018328 -0.004755 
0.000065 0.018296 -0.004752 
0.000131 0.018200 -0.004740 
-0.000257 0.018299 -0.009645 
-0.000129 0.018395 -0.009661 
0.000000 0.018427 -0.009662 
0.000129 0.018395 -0.009661 
0.000257 0.018299 -0.009645 
0.000245 0.020012 0.009988 
0.000123 0.020103 0.010004 
0.000000 0.020134 0.010005 
-0.000123 0.020103 0.010004 
-0.000245 0.020012 0.009987 
0.000125 0.019917 0.004911 
0.000062 0.020009 0.004923 
0.000000 0.020039 0.004927 
-0.000062 0.020009 0.004923 
-0.000125 0.019917 0.004911 
0.000000 0.019885 -0.000000 
0.000000 0.019978 -0.000000 
0.000000 0.020008 -0.000000 
0.000000 0.019978 -0.000000 
0.000000 0.019885 -0.000000 
-0.000125 0.019917 -0.004911 
-0.000062 0.020009 -0.004924 
0.000000 0.020039 -0.004927 
0.000062 0.020009 -0.004924 
0.000125 0.019917 -0.004911 
-0.000245 0.020012 -0.009988 
-0.000123 0.020103 -0.010004 
0.000000 0.020134 -0.010005 
0.000123 0.020103 -0.010004 
0.000245 0.020012 -0.009988 
0.000233 0.021780 0.010314 
0.000117 0.021867 0.010330 
0.000000 0.021896 0.010332 
-0.000117 0.021867 0.010330 
-0.000233 0.021780 0.010314 
0.000119 0.021690 0.005074 
0.000059 0.021777 0.005087 
0.000000 0.021806 0.005090 
-0.000059 0.021777 0.005087 
-0.000118 0.021690 0.005074 
0.000000 0.021659 -0.000000 
0.000000 0.021748 -0.000000 
0.000000 0.021777 -0.000000 
0.000000 0.021748 -0.000000 
0.000000 0.021660 -0.000000 
-0.000119 0.021690 -0.005074 
-0.000059 0.021777 -0.005087 
0.000000 0.021806 -0.005090 
0.000059 0.021777 -0.005087 
0.000119 0.021690 -0.005074 
-0.000233 0.021780 -0.010314 
-0.000117 0.021867 -0.010330 
0.000000 0.021896 -0.010332 
0.000117 0.021867 -0.010330 
0.000233 0.021780 -0.010314 
0.000221 0.023602 0.010624 
0.000111 0.023684 0.010640 
0.000000 0.023711 0.010642 
-0.000111 0.023684 0.010640 
-0.000221 0.023602 0.010624 
0.000112 0.023516 0.005229 
0.000056 0.023599 0.005241 
0.000000 0.023627 0.005245 
-0.000056 0.023599 0.005241 
-0.000112 0.023516 0.005229 
0.000000 0.023487 -0.000000 
0.000000 0.023571 -0.000000 
0.000000 0.023598 -0.000000 
0.000000 0.023571 -0.000000 
0.000000 0.023487 -0.000000 
-0.000112 0.023516 -0.005229 
-0.000056 0.023599 -0.005242 
0.000000 0.023627 -0.005245 
0.000056 0.023599 -0.005242 
0.000112 0.023516 -0.005229 
-0.000221 0.023602 -0.010624 
-0.000111 0.023684 -0.010640 
0.000000 0.023711 -0.010642 
0.000111 0.023684 -0.010640 
0.000221 0.023602 -0.010624 
0.000209 0.025473 0.010917 
0.000105 0.025551 0.010933 
0.000000 0.025577 0.010935 
-0.000105 0.025551 0.010933 
-0.000209 0.025473 0.010917 
0.000106 0.025392 0.005375 
0.000053 0.025471 0.005388 
0.000000 0.025497 0.005391 
-0.000053 0.025471 0.005388 
-0.000106 0.025393 0.005375 
0.000000 0.025365 -0.000000 
0.000000 0.025444 -0.000000 
0.000000 0.025470 -0.000000 
0.000000 0.025444 -0.000000 
0.000000 0.025365 -0.000000 
-0.000106 0.025392 -0.005375 
-0.000053 0.025471 -0.005388 
0.000000 0.025497 -0.005391 
0.000053 0.025471 -0.005388 
0.000106 0.025393 -0.005376 
-0.000209 0.025473 -0.010917 
-0.000105 0.025551 -0.010934 
0.000000 0.025577 -0.010935 
0.000105 0.025551 -0.010934 
0.000209 0.025473 -0.010917 
0.000197 0.027393 0.011194 
0.000099 0.027466 0.011210 
0.000000 0.027491 0.011212 
-0.000099 0.027466 0.011210 
-0.000196 0.027393 0.011194 
0.000100 0.027317 0.005514 
0.000050 0.027390 0.005526 
0.000000 0.027415 0.005530 
-0.000050 0.027390 0.005526 
-0.000100 0.027317 0.005514 
0.000000 0.027291 -0.000000 
0.000000 0.027366 -0.000000 
0.000000 0.027390 -0.000000 
0.000000 0.027366 -0.000000 
0.000000 0.027291 -0.000000 
-0.000100 0.027317 -0.005514 
-0.000050 0.027390 -0.005527 
0.000000 0.027415 -0.005530 
0.000050 0.027390 -0.005527 
0.000100 0.027317 -0.005514 
-0.000196 0.027393 -0.011194 
-0.000099 0.027466 -0.011210 
0.000000 0.027491 -0.011212 
0.000099 0.027466 -0.011210 
0.000197 0.027393 -0.011194 
0.000184 0.029357 0.011455 
0.000093 0.029426 0.011471 
0.000000 0.029449 0.011472 
-0.000092 0.029426 0.011471 
-0.000184 0.029357 0.011454 
0.000094 0.029286 0.005644 
0.000047 0.029355 0.005657 
0.000000 0.029378 0.005660 
-0.000047 0.029355 0.005656 
-0.000094 0.029286 0.005644 
0.000000 0.029262 -0.000000 
0.000000 0.029332 -0.000000 
0.000000 0.029354 -0.000000 
0.000000 0.029332 -0.000000 
0.000000 0.029262 -0.000000 
-0.000094 0.029286 -0.005644 
-0.000047 0.029355 -0.005657 
0.000000 0.029378 -0.005660 
0.000047 0.029355 -0.005657 
0.000094 0.029286 -0.005644 
-0.000184 0.029357 -0.011455 
-0.000092 0.029426 -0.011471 
0.000000 0.029449 -0.011472 
0.000093 0.029426 -0.011471 
0.000184 0.029357 -0.011455 
0.000172 0.031364 0.011698 
0.000087 0.031428 0.011714 
0.000000 0.031449 0.011716 
-0.000086 0.031428 0.011714 
-0.000172 0.031364 0.011698 
0.000088 0.031297 0.005766 
0.000044 0.031361 0.005778 
0.000000 0.031383 0.005781 
-0.000043 0.031361 0.005778 
-0.000088 0.031297 0.005765 
0.000000 0.031274 -0.000000 
0.000000 0.031340 -0.000000 
0.000000 0.031361 -0.000000 
0.000000 0.031340 -0.000000 
0.000000 0.031274 -0.000000 
-0.000088 0.031297 -0.005766 
-0.000043 0.031361 -0.005778 
0.000000 0.031383 -0.005782 
0.000044 0.031361 -0.005779 
0.000088 0.031297 -0.005766 
-0.000172 0.031364 -0.011698 
-0.000086 0.031428 -0.011715 
0.000000 0.031449 -0.011716 
0.000087 0.031428 -0.011715 
0.000172 0.031364 -0.011699 
0.000160 0.033409 0.011926 
0.000080 0.033469 0.011942 
0.000000 0.033489 0.011943 
-0.000080 0.033469 0.011942 
-0.000160 0.033409 0.011925 
0.000082 0.033347 0.005879 
0.000041 0.033407 0.005892 
0.000000 0.033427 0.005895 
-0.000040 0.033407 0.005892 
-0.000081 0.033347 0.005879 
0.000000 0.033326 -0.000000 
0.000000 0.033387 -0.000000 
0.000000 0.033407 -0.000000 