<?xml version="1.0"?>
<VTKFile type="UnstructuredGrid"  version="0.1"  >
<UnstructuredGrid>
<Piece  NumberOfPoints="1025" NumberOfCells="640">
<Points>
<DataArray  type="Float32"  NumberOfComponents="3"  format="ascii">
0.000000 0.000000 0.000000 
0.750000 0.000000 0.000000 
1.500000 0.000000 0.000000 
2.250000 0.000000 0.000000 
3.000000 0.000000 0.000000 
0.000000 0.750000 0.000000 
0.750000 0.750000 0.000000 
1.500000 0.750000 0.000000 
2.250000 0.750000 0.000000 
3.000000 0.750000 0.000000 
0.000000 1.500000 0.000000 
0.750000 1.500000 0.000000 
1.500000 1.500000 0.000000 
2.250000 1.500000 0.000000 
3.000000 1.500000 0.000000 
0.000000 2.250000 0.000000 
0.750000 2.250000 0.000000 
1.500000 2.250000 0.000000 
2.250000 2.250000 0.000000 
3.000000 2.250000 0.000000 
0.000000 3.000000 0.000000 
0.750000 3.000000 0.000000 
1.500000 3.000000 0.000000 
2.250000 3.000000 0.000000 
3.000000 3.000000 0.000000 
0.000000 0.000000 0.250000 
0.750000 0.000000 0.250000 
1.500000 0.000000 0.250000 
2.250000 0.000000 0.250000 
3.000000 0.000000 0.250000 
0.000000 0.750000 0.250000 
0.750000 0.750000 0.250000 
1.500000 0.750000 0.250000 
2.250000 0.750000 0.250000 
3.000000 0.750000 0.250000 
0.000000 1.500000 0.250000 
0.750000 1.500000 0.250000 
1.500000 1.500000 0.250000 
2.250000 1.500000 0.250000 
3.000000 1.500000 0.250000 
0.000000 2.250000 0.250000 
0.750000 2.250000 0.250000 
1.500000 2.250000 0.250000 
2.250000 2.250000 0.250000 
3.000000 2.250000 0.250000 
0.000000 3.000000 0.250000 
0.750000 3.000000 0.250000 
1.500000 3.000000 0.250000 
2.250000 3.000000 0.250000 
3.000000 3.000000 0.250000 
0.000000 0.000000 0.500000 
0.750000 0.000000 0.500000 
1.500000 0.000000 0.500000 
2.250000 0.000000 0.500000 
3.000000 0.000000 0.500000 
0.000000 0.750000 0.500000 
0.750000 0.750000 0.500000 
1.500000 0.750000 0.500000 
2.250000 0.750000 0.500000 
3.000000 0.750000 0.500000 
0.000000 1.500000 0.500000 
0.750000 1.500000 0.500000 
1.500000 1.500000 0.500000 
2.250000 1.500000 0.500000 
3.000000 1.500000 0.500000 
0.000000 2.250000 0.500000 
0.750000 2.250000 0.500000 
1.500000 2.250000 0.500000 
2.250000 2.250000 0.500000 
3.000000 2.250000 0.500000 
0.000000 3.000000 0.500000 
0.750000 3.000000 0.500000 
1.500000 3.000000 0.500000 
2.250000 3.000000 0.500000 
3.000000 3.000000 0.500000 
0.000000 0.000000 0.750000 
0.750000 0.000000 0.750000 
1.500000 0.000000 0.750000 
2.250000 0.000000 0.750000 
3.000000 0.000000 0.750000 
0.000000 0.750000 0.750000 
0.750000 0.750000 0.750000 
1.500000 0.750000 0.750000 
2.250000 0.750000 0.750000 
3.000000 0.750000 0.750000 
0.000000 1.500000 0.750000 
0.750000 1.500000 0.750000 
1.500000 1.500000 0.750000 
2.250000 1.500000 0.750000 
3.000000 1.500000 0.750000 
0.000000 2.250000 0.750000 
0.750000 2.250000 0.750000 
1.500000 2.250000 0.750000 
2.250000 2.250000 0.750000 
3.000000 2.250000 0.750000 
0.000000 3.000000 0.750000 
0.750000 3.000000 0.750000 
1.500000 3.000000 0.750000 
2.250000 3.000000 0.750000 
3.000000 3.000000 0.750000 
0.000000 0.000000 1.000000 
0.750000 0.000000 1.000000 
1.500000 0.000000 1.000000 
2.250000 0.000000 1.000000 
3.000000 0.000000 1.000000 
0.000000 0.750000 1.000000 
0.750000 0.750000 1.000000 
1.500000 0.750000 1.000000 
2.250000 0.750000 1.000000 
3.000000 0.750000 1.000000 
0.000000 1.500000 1.000000 
0.750000 1.500000 1.000000 
1.500000 1.500000 1.000000 
2.250000 1.500000 1.000000 
3.000000 1.500000 1.000000 
0.000000 2.250000 1.000000 
0.750000 2.250000 1.000000 
1.500000 2.250000 1.000000 
2.250000 2.250000 1.000000 
3.000000 2.250000 1.000000 
0.000000 3.000000 1.000000 
0.750000 3.000000 1.000000 
1.500000 3.000000 1.000000 
2.250000 3.000000 1.000000 
3.000000 3.000000 1.000000 
0.000000 0.000000 1.250000 
0.750000 0.000000 1.250000 
1.500000 0.000000 1.250000 
2.250000 0.000000 1.250000 
3.000000 0.000000 1.250000 
0.000000 0.750000 1.250000 
0.750000 0.750000 1.250000 
1.500000 0.750000 1.250000 
2.250000 0.750000 1.250000 
3.000000 0.750000 1.250000 
0.000000 1.500000 1.250000 
0.750000 1.500000 1.250000 
1.500000 1.500000 1.250000 
2.250000 1.500000 1.250000 
3.000000 1.500000 1.250000 
0.000000 2.250000 1.250000 
0.750000 2.250000 1.250000 
1.500000 2.250000 1.250000 
2.250000 2.250000 1.250000 
3.000000 2.250000 1.250000 
0.000000 3.000000 1.250000 
0.750000 3.000000 1.250000 
1.500000 3.000000 1.250000 
2.250000 3.000000 1.250000 
3.000000 3.000000 1.250000 
0.000000 0.000000 1.500000 
0.750000 0.000000 1.500000 
1.500000 0.000000 1.500000 
2.250000 0.000000 1.500000 
3.000000 0.000000 1.500000 
0.000000 0.750000 1.500000 
0.750000 0.750000 1.500000 
1.500000 0.750000 1.500000 
2.250000 0.750000 1.500000 
3.000000 0.750000 1.500000 
0.000000 1.500000 1.500000 
0.750000 1.500000 1.500000 
1.500000 1.500000 1.500000 
2.250000 1.500000 1.500000 
3.000000 1.500000 1.500000 
0.000000 2.250000 1.500000 
0.750000 2.250000 1.500000 
1.500000 2.250000 1.500000 
2.250000 2.250000 1.500000 
3.000000 2.250000 1.500000 
0.000000 3.000000 1.500000 
0.750000 3.000000 1.500000 
1.500000 3.000000 1.500000 
2.250000 3.000000 1.500000 
3.000000 3.000000 1.500000 
0.000000 0.000000 1.750000 
0.750000 0.000000 1.750000 
1.500000 0.000000 1.750000 
2.250000 0.000000 1.750000 
3.000000 0.000000 1.750000 
0.000000 0.750000 1.750000 
0.750000 0.750000 1.750000 
1.500000 0.750000 1.750000 
2.250000 0.750000 1.750000 
3.000000 0.750000 1.750000 
0.000000 1.500000 1.750000 
0.750000 1.500000 1.750000 
1.500000 1.500000 1.750000 
2.250000 1.500000 1.750000 
3.000000 1.500000 1.750000 
0.000000 2.250000 1.750000 
0.750000 2.250000 1.750000 
1.500000 2.250000 1.750000 
2.250000 2.250000 1.750000 
3.000000 2.250000 1.750000 
0.000000 3.000000 1.750000 
0.750000 3.000000 1.750000 
1.500000 3.000000 1.750000 
2.250000 3.000000 1.750000 
3.000000 3.000000 1.750000 
0.000000 0.000000 2.000000 
0.750000 0.000000 2.000000 
1.500000 0.000000 2.000000 
2.250000 0.000000 2.000000 
3.000000 0.000000 2.000000 
0.000000 0.750000 2.000000 
0.750000 0.750000 2.000000 
1.500000 0.750000 2.000000 
2.250000 0.750000 2.000000 
3.000000 0.750000 2.000000 
0.000000 1.500000 2.000000 
0.750000 1.500000 2.000000 
1.500000 1.500000 2.000000 
2.250000 1.500000 2.000000 
3.000000 1.500000 2.000000 
0.000000 2.250000 2.000000 
0.750000 2.250000 2.000000 
1.500000 2.250000 2.000000 
2.250000 2.250000 2.000000 
3.000000 2.250000 2.000000 
0.000000 3.000000 2.000000 
0.750000 3.000000 2.000000 
1.500000 3.000000 2.000000 
2.250000 3.000000 2.000000 
3.000000 3.000000 2.000000 
0.000000 0.000000 2.250000 
0.750000 0.000000 2.250000 
1.500000 0.000000 2.250000 
2.250000 0.000000 2.250000 
3.000000 0.000000 2.250000 
0.000000 0.750000 2.250000 
0.750000 0.750000 2.250000 
1.500000 0.750000 2.250000 
2.250000 0.750000 2.250000 
3.000000 0.750000 2.250000 
0.000000 1.500000 2.250000 
0.750000 1.500000 2.250000 
1.500000 1.500000 2.250000 
2.250000 1.500000 2.250000 
3.000000 1.500000 2.250000 
0.000000 2.250000 2.250000 
0.750000 2.250000 2.250000 
1.500000 2.250000 2.250000 
2.250000 2.250000 2.250000 
3.000000 2.250000 2.250000 
0.000000 3.000000 2.250000 
0.750000 3.000000 2.250000 
1.500000 3.000000 2.250000 
2.250000 3.000000 2.250000 
3.000000 3.000000 2.250000 
0.000000 0.000000 2.500000 
0.750000 0.000000 2.500000 
1.500000 0.000000 2.500000 
2.250000 0.000000 2.500000 
3.000000 0.000000 2.500000 
0.000000 0.750000 2.500000 
0.750000 0.750000 2.500000 
1.500000 0.750000 2.500000 
2.250000 0.750000 2.500000 
3.000000 0.750000 2.500000 
0.000000 1.500000 2.500000 
0.750000 1.500000 2.500000 
1.500000 1.500000 2.500000 
2.250000 1.500000 2.500000 
3.000000 1.500000 2.500000 
0.000000 2.250000 2.500000 
0.750000 2.250000 2.500000 
1.500000 2.250000 2.500000 
2.250000 2.250000 2.500000 
3.000000 2.250000 2.500000 
0.000000 3.000000 2.500000 
0.750000 3.000000 2.500000 
1.500000 3.000000 2.500000 
2.250000 3.000000 2.500000 
3.000000 3.000000 2.500000 
0.000000 0.000000 2.750000 
0.750000 0.000000 2.750000 
1.500000 0.000000 2.750000 
2.250000 0.000000 2.750000 
3.000000 0.000000 2.750000 
0.000000 0.750000 2.750000 
0.750000 0.750000 2.750000 
1.500000 0.750000 2.750000 
2.250000 0.750000 2.750000 
3.000000 0.750000 2.750000 
0.000000 1.500000 2.750000 
0.750000 1.500000 2.750000 
1.500000 1.500000 2.750000 
2.250000 1.500000 2.750000 
3.000000 1.500000 2.750000 
0.000000 2.250000 2.750000 
0.750000 2.250000 2.750000 
1.500000 2.250000 2.750000 
2.250000 2.250000 2.750000 
3.000000 2.250000 2.750000 
0.000000 3.000000 2.750000 
0.750000 3.000000 2.750000 
1.500000 3.000000 2.750000 
2.250000 3.000000 2.750000 
3.000000 3.000000 2.750000 
0.000000 0.000000 3.000000 
0.750000 0.000000 3.000000 
1.500000 0.000000 3.000000 
2.250000 0.000000 3.000000 
3.000000 0.000000 3.000000 
0.000000 0.750000 3.000000 
0.750000 0.750000 3.000000 
1.500000 0.750000 3.000000 
2.250000 0.750000 3.000000 
3.000000 0.750000 3.000000 
0.000000 1.500000 3.000000 
0.750000 1.500000 3.000000 
1.500000 1.500000 3.000000 
2.250000 1.500000 3.000000 
3.000000 1.500000 3.000000 
0.000000 2.250000 3.000000 
0.750000 2.250000 3.000000 
1.500000 2.250000 3.000000 
2.250000 2.250000 3.000000 
3.000000 2.250000 3.000000 
0.000000 3.000000 3.000000 
0.750000 3.000000 3.000000 
1.500000 3.000000 3.000000 
2.250000 3.000000 3.000000 
3.000000 3.000000 3.000000 
0.000000 0.000000 3.250000 
0.750000 0.000000 3.250000 
1.500000 0.000000 3.250000 
2.250000 0.000000 3.250000 
3.000000 0.000000 3.250000 
0.000000 0.750000 3.250000 
0.750000 0.750000 3.250000 
1.500000 0.750000 3.250000 
2.250000 0.750000 3.250000 
3.000000 0.750000 3.250000 
0.000000 1.500000 3.250000 
0.750000 1.500000 3.250000 
1.500000 1.500000 3.250000 
2.250000 1.500000 3.250000 
3.000000 1.500000 3.250000 
0.000000 2.250000 3.250000 
0.750000 2.250000 3.250000 
1.500000 2.250000 3.250000 
2.250000 2.250000 3.250000 
3.000000 2.250000 3.250000 
0.000000 3.000000 3.250000 
0.750000 3.000000 3.250000 
1.500000 3.000000 3.250000 
2.250000 3.000000 3.250000 
[...]
<PointData  Scalars="u">
<DataArray  type="Float32"  Name="VectorField1"  NumberOfComponents="3" format="ascii">
0.000000 0.000000 0.000000 
0.000000 0.000000 0.000000 
0.000000 0.000000 0.000000 
0.000000 0.000000 0.000000 
0.000000 0.000000 0.000000 
0.000000 0.000000 0.000000 
0.000000 0.000000 0.000000 
0.000000 0.000000 0.000000 
0.000000 0.000000 0.000000 
0.000000 0.000000 0.000000 
0.000000 0.000000 0.000000 
0.000000 0.000000 0.000000 
0.000000 0.000000 0.000000 
0.000000 0.000000 0.000000 
0.000000 0.000000 0.000000 
0.000000 0.000000 0.000000 
0.000000 0.000000 0.000000 
0.000000 0.000000 0.000000 
0.000000 0.000000 0.000000 
0.000000 0.000000 0.000000 
0.000000 0.000000 0.000000 
0.000000 0.000000 0.000000 
0.000000 0.000000 0.000000 
0.000000 0.000000 0.000000 
0.000000 0.000000 0.000000 
0.000149 0.000157 0.000581 
0.000038 0.000190 0.000540 
-0.000000 0.000196 0.000553 
-0.000038 0.000190 0.000540 
-0.000149 0.000157 0.000581 
0.000074 0.000054 0.000256 
0.000020 0.000090 0.000223 
-0.000000 0.000094 0.000227 
-0.000020 0.000090 0.000223 
-0.000074 0.000054 0.000256 
-0.000000 0.000048 -0.000000 
-0.000000 0.000085 -0.000000 
-0.000000 0.000091 0.000000 
-0.000000 0.000085 0.000000 
-0.000000 0.000048 0.000000 
-0.000074 0.000054 -0.000256 
-0.000020 0.000090 -0.000223 
-0.000000 0.000094 -0.000227 
0.000020 0.000090 -0.000223 
0.000074 0.000054 -0.000256 
-0.000149 0.000157 -0.000581 
-0.000038 0.000190 -0.000540 
-0.000000 0.000196 -0.000553 
0.000038 0.000190 -0.000540 
0.000149 0.000157 -0.000581 
0.000223 0.000355 0.001111 
0.000081 0.000417 0.001066 
-0.000000 0.000430 0.001073 
-0.000081 0.000417 0.001066 
-0.000223 0.000355 0.001111 
0.000116 0.000228 0.000507 
0.000042 0.000289 0.000470 
-0.000000 0.000301 0.000468 
-0.000042 0.000289 0.000470 
-0.000116 0.000228 0.000507 
-0.000000 0.000200 -0.000000 
-0.000000 0.000263 -0.000000 
-0.000000 0.000275 0.000000 
-0.000000 0.000263 0.000000 
-0.000000 0.000200 0.000000 
-0.000116 0.000228 -0.000507 
-0.000042 0.000289 -0.000470 
-0.000000 0.000301 -0.000468 
0.000042 0.000289 -0.000470 
0.000116 0.000228 -0.000507 
-0.000223 0.000355 -0.001111 
-0.000081 0.000417 -0.001066 
-0.000000 0.000430 -0.001073 
0.000081 0.000417 -0.001066 
0.000223 0.000355 -0.001111 
0.000266 0.000629 0.001614 
0.000112 0.000711 0.001576 
-0.000000 0.000732 0.001578 
-0.000112 0.000711 0.001576 
-0.000266 0.000629 0.001614 
0.000140 0.000495 0.000753 
0.000059 0.000575 0.000720 
-0.000000 0.000593 0.000716 
-0.000059 0.000575 0.000720 
-0.000140 0.000495 0.000753 
-0.000000 0.000456 -0.000000 
-0.000000 0.000537 -0.000000 
-0.000000 0.000555 0.000000 
-0.000000 0.000537 0.000000 
-0.000000 0.000456 0.000000 
-0.000140 0.000495 -0.000753 
-0.000059 0.000575 -0.000720 
-0.000000 0.000593 -0.000716 
0.000059 0.000575 -0.000720 
0.000140 0.000495 -0.000753 
-0.000266 0.000629 -0.001614 
-0.000112 0.000711 -0.001576 
-0.000000 0.000732 -0.001578 
0.000112 0.000711 -0.001576 
0.000266 0.000629 -0.001614 
0.000292 0.000985 0.002099 
0.000132 0.001080 0.002071 
-0.000000 0.001106 0.002070 
-0.000132 0.001080 0.002071 
-0.000292 0.000985 0.002099 
0.000153 0.000850 0.000992 
0.000070 0.000943 0.000969 
-0.000000 0.000967 0.000963 
-0.000070 0.000943 0.000969 
-0.000153 0.000850 0.000992 
-0.000000 0.000807 -0.000000 
-0.000000 0.000901 -0.000000 
-0.000000 0.000924 0.000000 
-0.000000 0.000901 0.000000 
-0.000000 0.000807 0.000000 
-0.000153 0.000850 -0.000992 
-0.000070 0.000943 -0.000969 
-0.000000 0.000967 -0.000963 
0.000070 0.000943 -0.000969 
0.000153 0.000850 -0.000992 
-0.000292 0.000985 -0.002099 
-0.000132 0.001080 -0.002071 
-0.000000 0.001106 -0.002070 
0.000132 0.001080 -0.002071 
0.000292 0.000985 -0.002099 
0.000305 0.001423 0.002571 
0.000145 0.001525 0.002553 
-0.000000 0.001556 0.002550 
-0.000145 0.001525 0.002553 
-0.000305 0.001423 0.002571 
0.000160 0.001290 0.001226 
0.000076 0.001391 0.001211 
-0.000000 0.001420 0.001205 
-0.000076 0.001391 0.001211 
-0.000160 0.001290 0.001226 
-0.000000 0.001245 -0.000000 
-0.000000 0.001348 -0.000000 
-0.000000 0.001375 0.000000 
-0.000000 0.001348 0.000000 
-0.000000 0.001245 0.000000 
-0.000160 0.001290 -0.001226 
-0.000076 0.001391 -0.001211 
-0.000000 0.001420 -0.001205 
0.000076 0.001391 -0.001211 
0.000160 0.001290 -0.001226 
-0.000305 0.001423 -0.002571 
-0.000145 0.001525 -0.002553 
-0.000000 0.001556 -0.002550 
0.000145 0.001525 -0.002553 
0.000305 0.001423 -0.002571 
0.000311 0.001941 0.003031 
0.000151 0.002048 0.003021 
-0.000000 0.002081 0.003019 
-0.000151 0.002048 0.003021 
-0.000311 0.001941 0.003031 
0.000162 0.001811 0.001454 
0.000079 0.001918 0.001446 
-0.000000 0.001949 0.001442 
-0.000079 0.001918 0.001446 
-0.000162 0.001811 0.001454 
-0.000000 0.001767 -0.000000 
-0.000000 0.001875 -0.000000 
-0.000000 0.001905 0.000000 
-0.000000 0.001875 0.000000 
-0.000000 0.001767 0.000000 
-0.000162 0.001811 -0.001454 
-0.000079 0.001918 -0.001446 
-0.000000 0.001949 -0.001442 
0.000079 0.001918 -0.001446 
0.000162 0.001811 -0.001454 
-0.000311 0.001941 -0.003031 
-0.000151 0.002048 -0.003021 
-0.000000 0.002081 -0.003019 
0.000151 0.002048 -0.003021 
0.000311 0.001941 -0.003031 
0.000311 0.002537 0.003479 
0.000153 0.002647 0.003476 
-0.000000 0.002681 0.003474 
-0.000153 0.002647 0.003476 
-0.000311 0.002537 0.003479 
0.000161 0.002411 0.001677 
0.000079 0.002520 0.001674 
-0.000000 0.002553 0.001671 
-0.000079 0.002520 0.001674 
-0.000161 0.002411 0.001677 
-0.000000 0.002368 -0.000000 
-0.000000 0.002478 -0.000000 
-0.000000 0.002510 0.000000 
-0.000000 0.002478 0.000000 
-0.000000 0.002368 0.000000 
-0.000161 0.002411 -0.001677 
-0.000079 0.002520 -0.001674 
-0.000000 0.002553 -0.001671 
0.000079 0.002520 -0.001674 
0.000161 0.002411 -0.001677 
-0.000311 0.002537 -0.003479 
-0.000153 0.002647 -0.003476 
-0.000000 0.002681 -0.003474 
0.000153 0.002647 -0.003476 
0.000311 0.002537 -0.003479 
0.000308 0.003209 0.003916 
0.000153 0.003319 0.003918 
-0.000000 0.003355 0.003916 
-0.000153 0.003319 0.003918 
-0.000308 0.003209 0.003916 
0.000159 0.003086 0.001894 
0.000079 0.003197 0.001895 
-0.000000 0.003231 0.001894 
-0.000079 0.003197 0.001895 
-0.000159 0.003086 0.001894 
-0.000000 0.003045 -0.000000 
-0.000000 0.003156 -0.000000 
-0.000000 0.003190 0.000000 
-0.000000 0.003156 0.000000 
-0.000000 0.003045 0.000000 
-0.000159 0.003086 -0.001894 
-0.000079 0.003197 -0.001895 
-0.000000 0.003231 -0.001894 
0.000079 0.003197 -0.001895 
0.000159 0.003086 -0.001894 
-0.000308 0.003209 -0.003916 
-0.000153 0.003319 -0.003918 
-0.000000 0.003355 -0.003916 
0.000153 0.003319 -0.003918 
0.000308 0.003209 -0.003916 
0.000302 0.003955 0.004340 
0.000151 0.004064 0.004346 
-0.000000 0.004100 0.004345 
-0.000151 0.004064 0.004346 
-0.000302 0.003955 0.004340 
0.000155 0.003836 0.002106 
0.000077 0.003946 0.002110 
-0.000000 0.003980 0.002109 
-0.000077 0.003946 0.002110 
-0.000155 0.003836 0.002106 
-0.000000 0.003795 -0.000000 
-0.000000 0.003906 -0.000000 
-0.000000 0.003941 0.000000 
-0.000000 0.003906 0.000000 
-0.000000 0.003795 0.000000 
-0.000155 0.003836 -0.002106 
-0.000077 0.003946 -0.002110 
-0.000000 0.003980 -0.002109 
0.000077 0.003946 -0.002110 
0.000155 0.003836 -0.002106 
-0.000302 0.003955 -0.004340 
-0.000151 0.004064 -0.004346 
-0.000000 0.004100 -0.004345 
0.000151 0.004064 -0.004346 
0.000302 0.003955 -0.004340 
0.000295 0.004772 0.004752 
0.000148 0.004879 0.004761 
-0.000000 0.004915 0.004760 
-0.000148 0.004879 0.004761 
-0.000295 0.004772 0.004752 
0.000151 0.004656 0.002311 
0.000075 0.004764 0.002317 
-0.000000 0.004799 0.002318 
-0.000075 0.004764 0.002317 
-0.000151 0.004656 0.002311 
-0.000000 0.004617 -0.000000 
-0.000000 0.004727 -0.000000 
-0.000000 0.004761 0.000000 
-0.000000 0.004727 0.000000 
-0.000000 0.004617 0.000000 
-0.000151 0.004656 -0.002311 
-0.000075 0.004764 -0.002317 
-0.000000 0.004799 -0.002318 
0.000075 0.004764 -0.002317 
0.000151 0.004656 -0.002311 
-0.000295 0.004772 -0.004752 
-0.000148 0.004879 -0.004761 
-0.000000 0.004915 -0.004760 
0.000148 0.004879 -0.004761 
0.000295 0.004772 -0.004752 
0.000287 0.005657 0.005152 
0.000144 0.005762 0.005162 
-0.000000 0.005797 0.005162 
-0.000144 0.005762 0.005162 
-0.000287 0.005657 0.005152 
0.000147 0.005545 0.002510 
0.000073 0.005651 0.002518 
-0.000000 0.005686 0.002519 
-0.000073 0.005651 0.002518 
-0.000147 0.005545 0.002510 
-0.000000 0.005508 -0.000000 
-0.000000 0.005615 -0.000000 
-0.000000 0.005649 0.000000 
-0.000000 0.005615 0.000000 
-0.000000 0.005508 0.000000 
-0.000147 0.005545 -0.002510 
-0.000073 0.005651 -0.002518 
-0.000000 0.005686 -0.002519 
0.000073 0.005651 -0.002518 
0.000147 0.005545 -0.002510 
-0.000287 0.005657 -0.005152 
-0.000144 0.005762 -0.005162 
-0.000000 0.005797 -0.005162 
0.000144 0.005762 -0.005162 
0.000287 0.005657 -0.005152 
0.000278 0.006609 0.005539 
0.000139 0.006711 0.005550 
-0.000000 0.006745 0.005550 
-0.000139 0.006711 0.005550 
-0.000278 0.006609 0.005539 
0.000142 0.006500 0.002703 
0.000071 0.006604 0.002712 
-0.000000 0.006637 0.002713 
-0.000071 0.006604 0.002712 
-0.000142 0.006500 0.002703 
-0.000000 0.006464 -0.000000 
-0.000000 0.006568 -0.000000 
-0.000000 0.006602 0.000000 
-0.000000 0.006568 0.000000 
-0.000000 0.006464 0.000000 
-0.000142 0.006500 -0.002703 
-0.000071 0.006604 -0.002712 
-0.000000 0.006637 -0.002713 
0.000071 0.006604 -0.002712 
0.000142 0.006500 -0.002703 
-0.000278 0.006609 -0.005539 
-0.000139 0.006711 -0.005550 
-0.000000 0.006745 -0.005550 
0.000139 0.006711 -0.005550 
0.000278 0.006609 -0.005539 
0.000269 0.007624 0.005913 
0.000135 0.007723 0.005925 
-0.000000 0.007756 0.005925 
-0.000135 0.007723 0.005925 
-0.000269 0.007624 0.005913 
0.000137 0.007519 0.002890 
0.000068 0.007620 0.002899 
-0.000000 0.007653 0.002901 
-0.000068 0.007620 0.002899 
-0.000137 0.007519 0.002890 
-0.000000 0.007484 -0.000000 
-0.000000 0.007585 -0.000000 
-0.000000 0.007618 0.000000 
-0.000000 0.007585 0.000000 
-0.000000 0.007484 0.000000 
-0.000137 0.007519 -0.002890 
-0.000068 0.007620 -0.002899 
-0.000000 0.007653 -0.002901 
0.000068 0.007620 -0.002899 
0.000137 0.007519 -0.002890 
-0.000269 0.007624 -0.005913 
-0.000135 0.007723 -0.005925 
-0.000000 0.007756 -0.005925 
0.000135 0.007723 -0.005925 
0.000269 0.007624 -0.005913 
0.000259 0.008701 0.006274 
0.000130 0.008796 0.006286 
-0.000000 0.008829 0.006287 
-0.000130 0.008796 0.006286 
-0.000259 0.008701 0.006274 
0.000132 0.008600 0.003070 
0.000066 0.008697 0.003080 
-0.000000 0.008729 0.003082 
-0.000066 0.008697 0.003080 
-0.000132 0.008600 0.003070 
-0.000000 0.008566 -0.000000 
-0.000000 0.008664 -0.000000 
-0.000000 0.008696 0.000000 
-0.000000 0.008664 0.000000 
-0.000000 0.008566 0.000000 
-0.000132 0.008600 -0.003070 
-0.000066 0.008697 -0.003080 
-0.000000 0.008729 -0.003082 
0.000066 0.008697 -0.003080 
0.000132 0.008600 -0.003070 
-0.000259 0.008701 -0.006274 
-0.000130 0.008796 -0.006286 
-0.000000 0.008829 -0.006287 
0.000130 0.008796 -0.006286 
0.000259 0.008701 -0.006274 
0.000250 0.009837 0.006621 
0.000125 0.009929 0.006634 
-0.000000 0.009960 0.006635 
-0.000125 0.009929 0.006634 
-0.000250 0.009837 0.006621 
0.000127 0.009740 0.003244 
0.000063 0.009833 0.003254 
-0.000000 0.009864 0.003256 
-0.000063 0.009833 0.003254 
-0.000127 0.009740 0.003244 
-0.000000 0.009707 -0.000000 
-0.000000 0.009802 -0.000000 
-0.000000 0.009832 0.000000 
-0.000000 0.009802 0.000000 
-0.000000 0.009707 0.000000 
-0.000127 0.009740 -0.003244 
-0.000063 0.009833 -0.003254 
-0.000000 0.009864 -0.003256 
0.000063 0.009833 -0.003254 
0.000127 0.009740 -0.003244 
-0.000250 0.009837 -0.006621 
-0.000125 0.009929 -0.006634 
-0.000000 0.009960 -0.006635 
0.000125 0.009929 -0.006634 
0.000250 0.009837 -0.006621 
0.000240 0.011030 0.006956 
0.000120 0.011119 0.006969 
-0.000000 0.011149 0.006970 
-0.000120 0.011119 0.006969 
-0.000240 0.011030 0.006956 
0.000122 0.010937 0.003411 
0.000061 0.011027 0.003421 
-0.000000 0.011057 0.003423 
-0.000061 0.011027 0.003421 
-0.000122 0.010937 0.003411 
-0.000000 0.010905 -0.000000 
-0.000000 0.010996 -0.000000 
-0.000000 0.011026 0.000000 
-0.000000 0.010996 0.000000 
-0.000000 0.010905 0.000000 
-0.000122 0.010937 -0.003411 
-0.000061 0.011027 -0.003421 
-0.000000 0.011057 -0.003423 
0.000061 0.011027 -0.003421 
0.000122 0.010937 -0.003411 
-0.000240 0.011030 -0.006956 
-0.000120 0.011119 -0.006969 
-0.000000 0.011149 -0.006970 
0.000120 0.011119 -0.006969 
0.000240 0.011030 -0.006956 
0.000230 0.012278 0.007277 
0.000116 0.012363 0.007290 
-0.000000 0.012392 0.007291 
-0.000116 0.012363 0.007290 
-0.000230 0.012278 0.007277 
0.000117 0.012188 0.003571 
0.000058 0.012275 0.003581 
-0.000000 0.012304 0.003584 
-0.000058 0.012275 0.003582 
-0.000117 0.012188 0.003571 
-0.000000 0.012158 -0.000000 
-0.000000 0.012246 -0.000000 
-0.000000 0.012274 0.000000 
-0.000000 0.012246 0.000000 
-0.000000 0.012158 0.000000 
-0.000117 0.012188 -0.003571 
-0.000058 0.012275 -0.003582 
-0.000000 0.012304 -0.003584 
0.000058 0.012275 -0.003581 
0.000117 0.012188 -0.003571 
-0.000230 0.012278 -0.007277 
-0.000116 0.012363 -0.007290 
-0.000000 0.012392 -0.007291 
0.000116 0.012363 -0.007290 
0.000230 0.012278 -0.007277 
0.000220 0.013578 0.007585 
0.000111 0.013660 0.007598 
-0.000000 0.013688 0.007599 
-0.000111 0.013660 0.007598 
-0.000220 0.013578 0.007585 
0.000112 0.013493 0.003725 
0.000056 0.013575 0.003735 
-0.000000 0.013603 0.003738 
-0.000056 0.013575 0.003735 
-0.000112 0.013493 0.003725 
-0.000000 0.013464 -0.000000 
-0.000000 0.013547 -0.000000 
-0.000000 0.013575 0.000000 
-0.000000 0.013547 0.000000 
-0.000000 0.013464 0.000000 
-0.000112 0.013493 -0.003725 
-0.000056 0.013575 -0.003735 
-0.000000 0.013603 -0.003738 
0.000056 0.013575 -0.003735 
0.000112 0.013493 -0.003725 
-0.000220 0.013578 -0.007585 
-0.000111 0.013660 -0.007598 
-0.000000 0.013688 -0.007599 
0.000111 0.013660 -0.007598 
0.000220 0.013578 -0.007585 
0.000211 0.014929 0.007879 
0.000106 0.015007 0.007892 
-0.000000 0.015034 0.007894 
-0.000106 0.015007 0.007892 
-0.000211 0.014929 0.007879 
0.000107 0.014847 0.003872 
0.000053 0.014926 0.003883 
-0.000000 0.014953 0.003885 
-0.000053 0.014926 0.003883 
-0.000107 0.014847 0.003872 
-0.000000 0.014820 -0.000000 
-0.000000 0.014900 -0.000000 
-0.000000 0.014926 0.000000 
-0.000000 0.014900 0.000000 
-0.000000 0.014820 0.000000 
-0.000107 0.014847 -0.003872 
-0.000053 0.014926 -0.003883 
-0.000000 0.014953 -0.003885 
0.000053 0.014926 -0.003883 
0.000107 0.014847 -0.003872 
-0.000211 0.014929 -0.007879 
-0.000106 0.015007 -0.007892 
-0.000000 0.015034 -0.007894 
0.000106 0.015007 -0.007892 
0.000211 0.014929 -0.007879 
0.000201 0.016328 0.008161 
0.000101 0.016402 0.008174 
-0.000000 0.016428 0.008175 
-0.000101 0.016402 0.008174 
-0.000201 0.016328 0.008161 
0.000102 0.016250 0.004013 
0.000051 0.016325 0.004023 
-0.000000 0.016350 0.004026 
-0.000051 0.016325 0.004023 
-0.000102 0.016250 0.004013 
-0.000000 0.016224 -0.000000 
-0.000000 0.016300 -0.000000 
-0.000000 0.016325 0.000000 
-0.000000 0.016300 0.000000 
-0.000000 0.016224 0.000000 
-0.000102 0.016250 -0.004013 
-0.000051 0.016325 -0.004023 
-0.000000 0.016350 -0.004026 
0.000051 0.016325 -0.004023 
0.000102 0.016250 -0.004013 
-0.000201 0.016328 -0.008161 
-0.000101 0.016402 -0.008174 
-0.000000 0.016428 -0.008175 
0.000101 0.016402 -0.008174 
0.000201 0.016328 -0.008161 
0.000191 0.017772 0.008429 
0.000096 0.017843 0.008442 
-0.000000 0.017867 0.008443 
-0.000096 0.017843 0.008442 
-0.000191 0.017772 0.008429 
0.000097 0.017698 0.004147 
0.000048 0.017770 0.004157 
-0.000000 0.017794 0.004160 
-0.000048 0.017770 0.004157 
-0.000097 0.017698 0.004147 
-0.000000 0.017673 -0.000000 
-0.000000 0.017746 -0.000000 
-0.000000 0.017770 0.000000 
-0.000000 0.017746 0.000000 
-0.000000 0.017673 0.000000 
-0.000097 0.017698 -0.004147 
-0.000048 0.017770 -0.004157 
-0.000000 0.017794 -0.004160 
0.000048 0.017770 -0.004157 
0.000097 0.017698 -0.004147 
-0.000191 0.017772 -0.008429 
-0.000096 0.017843 -0.008442 
-0.000000 0.017867 -0.008443 
0.000096 0.017843 -0.008442 
0.000191 0.017772 -0.008429 
0.000181 0.019261 0.008683 
0.000091 0.019328 0.008696 
-0.000000 0.019351 0.008697 
-0.000091 0.019328 0.008696 
-0.000181 0.019261 0.008683 
0.000092 0.019190 0.004274 
0.000046 0.019258 0.004284 
-0.000000 0.019281 0.004287 
-0.000046 0.019258 0.004284 
-0.000092 0.019190 0.004274 
-0.000000 0.019167 -0.000000 
-0.000000 0.019235 -0.000000 
-0.000000 0.019258 0.000000 
-0.000000 0.019235 0.000000 
-0.000000 0.019167 0.000000 
-0.000092 0.019190 -0.004274 
-0.000046 0.019258 -0.004284 
-0.000000 0.019281 -0.004287 
0.000046 0.019258 -0.004284 
0.000092 0.019190 -0.004274 
-0.000181 0.019261 -0.008683 
-0.000091 0.019328 -0.008696 
-0.000000 0.019351 -0.008697 
0.000091 0.019328 -0.008696 
0.000181 0.019261 -0.008683 
0.000171 0.020790 0.008924 
0.000086 0.020854 0.008937 
-0.000000 0.020876 0.008938 
-0.000086 0.020854 0.008937 
-0.000171 0.020790 0.008924 
0.000087 0.020724 0.004394 
0.000043 0.020788 0.004405 
-0.000000 0.020810 0.004407 
-0.000043 0.020788 0.004405 
-0.000087 0.020724 0.004394 
-0.000000 0.020702 -0.000000 
-0.000000 0.020767 -0.000000 
-0.000000 0.020788 0.000000 
-0.000000 0.020767 0.000000 
-0.000000 0.020702 0.000000 
-0.000087 0.020724 -0.004394 
-0.000043 0.020788 -0.004405 
-0.000000 0.020810 -0.004407 
0.000043 0.020788 -0.004405 
0.000087 0.020724 -0.004394 
-0.000171 0.020790 -0.008924 
-0.000086 0.020854 -0.008937 
-0.000000 0.020876 -0.008938 
0.000086 0.020854 -0.008937 
0.000171 0.020790 -0.008924 
0.000161 0.022359 0.009152 
0.000081 0.022419 0.009165 
-0.000000 0.022440 0.009166 
-0.000081 0.022419 0.009165 
-0.000162 0.022359 0.009152 
0.000082 0.022297 0.004508 
0.000041 0.022357 0.004518 
-0.000000 0.022378 0.004521 
-0.000041 0.022357 0.004518 
-0.000082 0.022297 0.004508 
-0.000000 0.022276 -0.000000 
-0.000000 0.022337 -0.000000 
-0.000000 0.022357 0.000000 
-0.000000 0.022337 0.000000 
-0.000000 0.022276 0.000000 
-0.000082 0.022297 -0.004508 
-0.000041 0.022357 -0.004518 
-0.000000 0.022378 -0.004521 
0.000041 0.022357 -0.004518 
0.000082 0.022297 -0.004508 
-0.000162 0.022359 -0.009152 
-0.000081 0.022419 -0.009165 
-0.000000 0.022440 -0.009166 
0.000081 0.022419 -0.009165 
0.000161 0.022359 -0.009152 
0.000152 0.023965 0.009366 
0.000076 0.024021 0.009379 
-0.000000 0.024041 0.009380 
-0.000076 0.024021 0.009379 
-0.000152 0.023965 0.009366 
0.000077 0.023906 0.004615 
0.000038 0.023963 0.004625 
-0.000000 0.023982 0.004628 
-0.000038 0.023963 0.004625 
-0.000077 0.023906 0.004615 
-0.000000 0.023887 -0.000000 
-0.000000 0.023944 -0.000000 
-0.000000 0.023963 0.000000 
-0.000000 0.023944 0.000000 
-0.000000 0.023887 0.000000 
-0.000077 0.023906 -0.004615 
-0.000038 0.023963 -0.004625 
-0.000000 0.023982 -0.004628 
0.000038 0.023963 -0.004625 
0.000077 0.023906 -0.004615 
-0.000152 0.023965 -0.009366 
-0.000076 0.024021 -0.009379 
-0.000000 0.024041 -0.009380 
0.000076 0.024021 -0.009379 
0.000152 0.023965 -0.009366 
0.000142 0.025606 0.009566 
0.000071 0.025658 0.009579 
-0.000000 0.025676 0.009581 
-0.000071 0.025658 0.009579 
-0.000142 0.025606 0.009566 
0.000072 0.025551 0.004715 
0.000036 0.025604 0.004725 
-0.000000 0.025622 0.004728 
-0.000036 0.025604 0.004725 
-0.000072 0.025551 0.004715 
-0.000000 0.025532 -0.000000 
-0.000000 0.025586 -0.000000 
-0.000000 0.025604 0.000000 
-0.000000 0.025586 0.000000 
-0.000000 0.025532 0.000000 
-0.000072 0.025551 -0.004715 
-0.000036 0.025604 -0.004725 
-0.000000 0.025622 -0.004728 
0.000036 0.025604 -0.004725 
0.000072 0.025551 -0.004715 
-0.000142 0.025606 -0.009566 
-0.000071 0.025658 -0.009579 
-0.000000 0.025676 -0.009581 
0.000071 0.025658 -0.009579 
0.000142 0.025606 -0.009566 
0.000132 0.027278 0.009753 
0.000066 0.027327 0.009766 
-0.000000 0.027344 0.009768 
-0.000066 0.027327 0.009766 
-0.000132 0.027278 0.009753 
0.000067 0.027227 0.004808 
0.000033 0.027277 0.004819 
-0.000000 0.027293 0.004821 