<?xml version="1.0"?>
<VTKFile type="UnstructuredGrid"  version="0.1"  >
<UnstructuredGrid>
<Piece  NumberOfPoints="1025" NumberOfCells="640">
<Points>
<DataArray  type="Float32"  NumberOfComponents="3"  format="ascii">
0.000000 0.000000 0.000000 
0.750000 0.000000 0.000000 
1.500000 0.000000 0.000000 
2.250000 0.000000 0.000000 
3.000000 0.000000 0.000000 
0.000000 0.750000 0.000000 
0.750000 0.750000 0.000000 
1.500000 0.750000 0.000000 
2.250000 0.750000 0.000000 
3.000000 0.750000 0.000000 
0.000000 1.500000 0.000000 
0.750000 1.500000 0.000000 
1.500000 1.500000 0.000000 
2.250000 1.500000 0.000000 
3.000000 1.500000 0.000000 
0.000000 2.250000 0.000000 
0.750000 2.250000 0.000000 
1.500000 2.250000 0.000000 
2.250000 2.250000 0.000000 
3.000000 2.250000 0.000000 
0.000000 3.000000 0.000000 
0.750000 3.000000 0.000000 
1.500000 3.000000 0.000000 
2.250000 3.000000 0.000000 
3.000000 3.000000 0.000000 
0.000000 0.000000 0.250000 
0.750000 0.000000 0.250000 
1.500000 0.000000 0.250000 
2.250000 0.000000 0.250000 
3.000000 0.000000 0.250000 
0.000000 0.750000 0.250000 
0.750000 0.750000 0.250000 
1.500000 0.750000 0.250000 
2.250000 0.750000 0.250000 
3.000000 0.750000 0.250000 
0.000000 1.500000 0.250000 
0.750000 1.500000 0.250000 
1.500000 1.500000 0.250000 
2.250000 1.500000 0.250000 
3.000000 1.500000 0.250000 
0.000000 2.250000 0.250000 
0.750000 2.250000 0.250000 
1.500000 2.250000 0.250000 
2.250000 2.250000 0.250000 
3.000000 2.250000 0.250000 
0.000000 3.000000 0.250000 
0.750000 3.000000 0.250000 
1.500000 3.000000 0.250000 
2.250000 3.000000 0.250000 
3.000000 3.000000 0.250000 
0.000000 0.000000 0.500000 
0.750000 0.000000 0.500000 
1.500000 0.000000 0.500000 
2.250000 0.000000 0.500000 
3.000000 0.000000 0.500000 
0.000000 0.750000 0.500000 
0.750000 0.750000 0.500000 
1.500000 0.750000 0.500000 
2.250000 0.750000 0.500000 
3.000000 0.750000 0.500000 
0.000000 1.500000 0.500000 
0.750000 1.500000 0.500000 
1.500000 1.500000 0.500000 
2.250000 1.500000 0.500000 
3.000000 1.500000 0.500000 
0.000000 2.250000 0.500000 
0.750000 2.250000 0.500000 
1.500000 2.250000 0.500000 
2.250000 2.250000 0.500000 
3.000000 2.250000 0.500000 
0.000000 3.000000 0.500000 
0.750000 3.000000 0.500000 
1.500000 3.000000 0.500000 
2.250000 3.000000 0.500000 
3.000000 3.000000 0.500000 
0.000000 0.000000 0.750000 
0.750000 0.000000 0.750000 
1.500000 0.000000 0.750000 
2.250000 0.000000 0.750000 
3.000000 0.000000 0.750000 
0.000000 0.750000 0.750000 
0.750000 0.750000 0.750000 
1.500000 0.750000 0.750000 
2.250000 0.750000 0.750000 
3.000000 0.750000 0.750000 
0.000000 1.500000 0.750000 
0.750000 1.500000 0.750000 
1.500000 1.500000 0.750000 
2.250000 1.500000 0.750000 
3.000000 1.500000 0.750000 
0.000000 2.250000 0.750000 
0.750000 2.250000 0.750000 
1.500000 2.250000 0.750000 
2.250000 2.250000 0.750000 
3.000000 2.250000 0.750000 
0.000000 3.000000 0.750000 
0.750000 3.000000 0.750000 
1.500000 3.000000 0.750000 
2.250000 3.000000 0.750000 
3.000000 3.000000 0.750000 
0.000000 0.000000 1.000000 
0.750000 0.000000 1.000000 
1.500000 0.000000 1.000000 
2.250000 0.000000 1.000000 
3.000000 0.000000 1.000000 
0.000000 0.750000 1.000000 
0.750000 0.750000 1.000000 
1.500000 0.750000 1.000000 
2.250000 0.750000 1.000000 
3.000000 0.750000 1.000000 
0.000000 1.500000 1.000000 
0.750000 1.500000 1.000000 
1.500000 1.500000 1.000000 
2.250000 1.500000 1.000000 
3.000000 1.500000 1.000000 
0.000000 2.250000 1.000000 
0.750000 2.250000 1.000000 
1.500000 2.250000 1.000000 
2.250000 2.250000 1.000000 
3.000000 2.250000 1.000000 
0.000000 3.000000 1.000000 
0.750000 3.000000 1.000000 
1.500000 3.000000 1.000000 
2.250000 3.000000 1.000000 
3.000000 3.000000 1.000000 
0.000000 0.000000 1.250000 
0.750000 0.000000 1.250000 
1.500000 0.000000 1.250000 
2.250000 0.000000 1.250000 
3.000000 0.000000 1.250000 
0.000000 0.750000 1.250000 
0.750000 0.750000 1.250000 
1.500000 0.750000 1.250000 
2.250000 0.750000 1.250000 
3.000000 0.750000 1.250000 
0.000000 1.500000 1.250000 
0.750000 1.500000 1.250000 
1.500000 1.500000 1.250000 
2.250000 1.500000 1.250000 
3.000000 1.500000 1.250000 
0.000000 2.250000 1.250000 
0.750000 2.250000 1.250000 
1.500000 2.250000 1.250000 
2.250000 2.250000 1.250000 
3.000000 2.250000 1.250000 
0.000000 3.000000 1.250000 
0.750000 3.000000 1.250000 
1.500000 3.000000 1.250000 
2.250000 3.000000 1.250000 
3.000000 3.000000 1.250000 
0.000000 0.000000 1.500000 
0.750000 0.000000 1.500000 
1.500000 0.000000 1.500000 
2.250000 0.000000 1.500000 
3.000000 0.000000 1.500000 
0.000000 0.750000 1.500000 
0.750000 0.750000 1.500000 
1.500000 0.750000 1.500000 
2.250000 0.750000 1.500000 
3.000000 0.750000 1.500000 
0.000000 1.500000 1.500000 
0.750000 1.500000 1.500000 
1.500000 1.500000 1.500000 
2.250000 1.500000 1.500000 
3.000000 1.500000 1.500000 
0.000000 2.250000 1.500000 
0.750000 2.250000 1.500000 
1.500000 2.250000 1.500000 
2.250000 2.250000 1.500000 
3.000000 2.250000 1.500000 
0.000000 3.000000 1.500000 
0.750000 3.000000 1.500000 
1.500000 3.000000 1.500000 
2.250000 3.000000 1.500000 
3.000000 3.000000 1.500000 
0.000000 0.000000 1.750000 
0.750000 0.000000 1.750000 
1.500000 0.000000 1.750000 
2.250000 0.000000 1.750000 
3.000000 0.000000 1.750000 
0.000000 0.750000 1.750000 
0.750000 0.750000 1.750000 
1.500000 0.750000 1.750000 
2.250000 0.750000 1.750000 
3.000000 0.750000 1.750000 
0.000000 1.500000 1.750000 
0.750000 1.500000 1.750000 
1.500000 1.500000 1.750000 
2.250000 1.500000 1.750000 
3.000000 1.500000 1.750000 
0.000000 2.250000 1.750000 
0.750000 2.250000 1.750000 
1.500000 2.250000 1.750000 
2.250000 2.250000 1.750000 
3.000000 2.250000 1.750000 
0.000000 3.000000 1.750000 
0.750000 3.000000 1.750000 
1.500000 3.000000 1.750000 
2.250000 3.000000 1.750000 
3.000000 3.000000 1.750000 
0.000000 0.000000 2.000000 
0.750000 0.000000 2.000000 
1.500000 0.000000 2.000000 
2.250000 0.000000 2.000000 
3.000000 0.000000 2.000000 
0.000000 0.750000 2.000000 
0.750000 0.750000 2.000000 
1.500000 0.750000 2.000000 
2.250000 0.750000 2.000000 
3.000000 0.750000 2.000000 
0.000000 1.500000 2.000000 
0.750000 1.500000 2.000000 
1.500000 1.500000 2.000000 
2.250000 1.500000 2.000000 
3.000000 1.500000 2.000000 
0.000000 2.250000 2.000000 
0.750000 2.250000 2.000000 
1.500000 2.250000 2.000000 
2.250000 2.250000 2.000000 
3.000000 2.250000 2.000000 
0.000000 3.000000 2.000000 
0.750000 3.000000 2.000000 
1.500000 3.000000 2.000000 
2.250000 3.000000 2.000000 
3.000000 3.000000 2.000000 
0.000000 0.000000 2.250000 
0.750000 0.000000 2.250000 
1.500000 0.000000 2.250000 
2.250000 0.000000 2.250000 
3.000000 0.000000 2.250000 
0.000000 0.750000 2.250000 
0.750000 0.750000 2.250000 
1.500000 0.750000 2.250000 
2.250000 0.750000 2.250000 
3.000000 0.750000 2.250000 
0.000000 1.500000 2.250000 
0.750000 1.500000 2.250000 
1.500000 1.500000 2.250000 
2.250000 1.500000 2.250000 
3.000000 1.500000 2.250000 
0.000000 2.250000 2.250000 
0.750000 2.250000 2.250000 
1.500000 2.250000 2.250000 
2.250000 2.250000 2.250000 
3.000000 2.250000 2.250000 
0.000000 3.000000 2.250000 
0.750000 3.000000 2.250000 
1.500000 3.000000 2.250000 
2.250000 3.000000 2.250000 
3.000000 3.000000 2.250000 
0.000000 0.000000 2.500000 
0.750000 0.000000 2.500000 
1.500000 0.000000 2.500000 
2.250000 0.000000 2.500000 
3.000000 0.000000 2.500000 
0.000000 0.750000 2.500000 
0.750000 0.750000 2.500000 
1.500000 0.750000 2.500000 
2.250000 0.750000 2.500000 
3.000000 0.750000 2.500000 
0.000000 1.500000 2.500000 
0.750000 1.500000 2.500000 
1.500000 1.500000 2.500000 
2.250000 1.500000 2.500000 
3.000000 1.500000 2.500000 
0.000000 2.250000 2.500000 
0.750000 2.250000 2.500000 
1.500000 2.250000 2.500000 
2.250000 2.250000 2.500000 
3.000000 2.250000 2.500000 
0.000000 3.000000 2.500000 
0.750000 3.000000 2.500000 
1.500000 3.000000 2.500000 
2.250000 3.000000 2.500000 
3.000000 3.000000 2.500000 
0.000000 0.000000 2.750000 
0.750000 0.000000 2.750000 
1.500000 0.000000 2.750000 
2.250000 0.000000 2.750000 
3.000000 0.000000 2.750000 
0.000000 0.750000 2.750000 
0.750000 0.750000 2.750000 
1.500000 0.750000 2.750000 
2.250000 0.750000 2.750000 
3.000000 0.750000 2.750000 
0.000000 1.500000 2.750000 
0.750000 1.500000 2.750000 
1.500000 1.500000 2.750000 
2.250000 1.500000 2.750000 
3.000000 1.500000 2.750000 
0.000000 2.250000 2.750000 
0.750000 2.250000 2.750000 
1.500000 2.250000 2.750000 
2.250000 2.250000 2.750000 
3.000000 2.250000 2.750000 
0.000000 3.000000 2.750000 
0.750000 3.000000 2.750000 
1.500000 3.000000 2.750000 
2.250000 3.000000 2.750000 
3.000000 3.000000 2.750000 
0.000000 0.000000 3.000000 
0.750000 0.000000 3.000000 
1.500000 0.000000 3.000000 
2.250000 0.000000 3.000000 
3.000000 0.000000 3.000000 
0.000000 0.750000 3.000000 
0.750000 0.750000 3.000000 
1.500000 0.750000 3.000000 
2.250000 0.750000 3.000000 
3.000000 0.750000 3.000000 
0.000000 1.500000 3.000000 
0.750000 1.500000 3.000000 
1.500000 1.500000 3.000000 
2.250000 1.500000 3.000000 
3.000000 1.500000 3.000000 
0.000000 2.250000 3.000000 
0.750000 2.250000 3.000000 
1.500000 2.250000 3.000000 
2.250000 2.250000 3.000000 
3.000000 2.250000 3.000000 
0.000000 3.000000 3.000000 
0.750000 3.000000 3.000000 
1.500000 3.000000 3.000000 
2.250000 3.000000 3.000000 
3.000000 3.000000 3.000000 
0.000000 0.000000 3.250000 
0.750000 0.000000 3.250000 
1.500000 0.000000 3.250000 
2.250000 0.000000 3.250000 
3.000000 0.000000 3.250000 
0.000000 0.750000 3.250000 
0.750000 0.750000 3.250000 
1.500000 0.750000 3.250000 
2.250000 0.750000 3.250000 
3.000000 0.750000 3.250000 
0.000000 1.500000 3.250000 
0.750000 1.500000 3.250000 
1.500000 1.500000 3.250000 
2.250000 1.500000 3.250000 
3.000000 1.500000 3.250000 
0.000000 2.250000 3.250000 
0.750000 2.250000 3.250000 
1.500000 2.250000 3.250000 
2.250000 2.250000 3.250000 
3.000000 2.250000 3.250000 
0.000000 3.000000 3.250000 
0.750000 3.000000 3.250000 
1.500000 3.000000 3.250000 
2.250000 3.000000 3.250000 
[...]
<PointData  Scalars="u">
<DataArray  type="Float32"  Name="VectorField1"  NumberOfComponents="3" format="ascii">
0.000000 0.000000 0.000000 
0.000000 0.000000 0.000000 
0.000000 0.000000 0.000000 
0.000000 0.000000 0.000000 
0.000000 0.000000 0.000000 
0.000000 0.000000 0.000000 
0.000000 0.000000 0.000000 
0.000000 0.000000 0.000000 
0.000000 0.000000 0.000000 
0.000000 0.000000 0.000000 
0.000000 0.000000 0.000000 
0.000000 0.000000 0.000000 
0.000000 0.000000 0.000000 
0.000000 0.000000 0.000000 
0.000000 0.000000 0.000000 
0.000000 0.000000 0.000000 
0.000000 0.000000 0.000000 
0.000000 0.000000 0.000000 
0.000000 0.000000 0.000000 
0.000000 0.000000 0.000000 
0.000000 0.000000 0.000000 
0.000000 0.000000 0.000000 
0.000000 0.000000 0.000000 
0.000000 0.000000 0.000000 
0.000000 0.000000 0.000000 
0.000156 0.000164 0.000610 
0.000040 0.000199 0.000566 
-0.000000 0.000206 0.000580 
-0.000040 0.000199 0.000566 
-0.000156 0.000164 0.000610 
0.000078 0.000057 0.000268 
0.000021 0.000094 0.000234 
-0.000000 0.000099 0.000238 
-0.000021 0.000094 0.000234 
-0.000078 0.000057 0.000268 
-0.000000 0.000050 -0.000000 
-0.000000 0.000090 -0.000000 
0.000000 0.000096 -0.000000 
0.000000 0.000090 -0.000000 
0.000000 0.000050 -0.000000 
-0.000078 0.000057 -0.000268 
-0.000021 0.000094 -0.000234 
0.000000 0.000099 -0.000238 
0.000021 0.000094 -0.000234 
0.000078 0.000057 -0.000268 
-0.000156 0.000164 -0.000610 
-0.000040 0.000199 -0.000566 
0.000000 0.000206 -0.000580 
0.000040 0.000199 -0.000566 
0.000156 0.000164 -0.000610 
0.000234 0.000373 0.001166 
0.000085 0.000438 0.001118 
-0.000000 0.000452 0.001126 
-0.000085 0.000438 0.001118 
-0.000234 0.000373 0.001166 
0.000121 0.000239 0.000532 
0.000044 0.000303 0.000493 
-0.000000 0.000316 0.000491 
-0.000044 0.000303 0.000493 
-0.000121 0.000239 0.000532 
0.000000 0.000210 -0.000000 
0.000000 0.000276 -0.000000 
0.000000 0.000288 -0.000000 
0.000000 0.000276 -0.000000 
0.000000 0.000210 -0.000000 
-0.000121 0.000239 -0.000532 
-0.000044 0.000303 -0.000493 
0.000000 0.000316 -0.000491 
0.000044 0.000303 -0.000493 
0.000121 0.000239 -0.000532 
-0.000234 0.000373 -0.001166 
-0.000085 0.000438 -0.001118 
0.000000 0.000452 -0.001126 
0.000085 0.000438 -0.001118 
0.000234 0.000373 -0.001166 
0.000279 0.000661 0.001693 
0.000118 0.000746 0.001654 
-0.000000 0.000768 0.001656 
-0.000118 0.000746 0.001654 
-0.000279 0.000661 0.001693 
0.000146 0.000520 0.000790 
0.000062 0.000604 0.000756 
-0.000000 0.000623 0.000751 
-0.000062 0.000604 0.000756 
-0.000146 0.000520 0.000790 
0.000000 0.000479 -0.000000 
0.000000 0.000564 -0.000000 
0.000000 0.000583 -0.000000 
0.000000 0.000564 -0.000000 
0.000000 0.000479 -0.000000 
-0.000146 0.000520 -0.000790 
-0.000062 0.000604 -0.000756 
0.000000 0.000623 -0.000751 
0.000062 0.000604 -0.000756 
0.000146 0.000520 -0.000790 
-0.000279 0.000661 -0.001693 
-0.000118 0.000746 -0.001654 
0.000000 0.000768 -0.001656 
0.000118 0.000746 -0.001654 
0.000279 0.000661 -0.001693 
0.000306 0.001034 0.002202 
0.000139 0.001133 0.002173 
-0.000000 0.001161 0.002172 
-0.000139 0.001133 0.002173 
-0.000306 0.001034 0.002202 
0.000160 0.000893 0.001041 
0.000073 0.000990 0.001016 
-0.000000 0.001015 0.001010 
-0.000073 0.000990 0.001016 
-0.000160 0.000893 0.001041 
0.000000 0.000847 -0.000000 
0.000000 0.000946 -0.000000 
0.000000 0.000970 -0.000000 
0.000000 0.000946 -0.000000 
0.000000 0.000847 -0.000000 
-0.000160 0.000893 -0.001041 
-0.000073 0.000990 -0.001016 
0.000000 0.001015 -0.001010 
0.000073 0.000990 -0.001016 
0.000160 0.000893 -0.001041 
-0.000306 0.001034 -0.002202 
-0.000139 0.001133 -0.002173 
0.000000 0.001161 -0.002172 
0.000139 0.001133 -0.002173 
0.000306 0.001034 -0.002202 
0.000320 0.001494 0.002697 
0.000152 0.001601 0.002679 
-0.000000 0.001633 0.002676 
-0.000152 0.001601 0.002679 
-0.000320 0.001494 0.002697 
0.000167 0.001354 0.001286 
0.000080 0.001460 0.001270 
-0.000000 0.001490 0.001264 
-0.000080 0.001460 0.001270 
-0.000167 0.001354 0.001286 
0.000000 0.001307 -0.000000 
0.000000 0.001415 -0.000000 
0.000000 0.001443 -0.000000 
0.000000 0.001415 -0.000000 
0.000000 0.001307 -0.000000 
-0.000167 0.001354 -0.001286 
-0.000080 0.001460 -0.001270 
0.000000 0.001490 -0.001264 
0.000080 0.001460 -0.001270 
0.000167 0.001354 -0.001286 
-0.000320 0.001494 -0.002697 
-0.000152 0.001601 -0.002679 
0.000000 0.001633 -0.002676 
0.000152 0.001601 -0.002679 
0.000320 0.001494 -0.002697 
0.000326 0.002037 0.003180 
0.000158 0.002150 0.003170 
-0.000000 0.002185 0.003167 
-0.000158 0.002150 0.003170 
-0.000326 0.002037 0.003180 
0.000170 0.001901 0.001526 
0.000083 0.002013 0.001517 
-0.000000 0.002046 0.001512 
-0.000083 0.002013 0.001517 
-0.000170 0.001901 0.001526 
0.000000 0.001854 -0.000000 
0.000000 0.001968 -0.000000 
0.000000 0.001999 -0.000000 
0.000000 0.001968 -0.000000 
0.000000 0.001854 -0.000000 
-0.000170 0.001901 -0.001526 
-0.000083 0.002013 -0.001517 
0.000000 0.002046 -0.001512 
0.000083 0.002013 -0.001517 
0.000170 0.001901 -0.001526 
-0.000326 0.002037 -0.003180 
-0.000158 0.002150 -0.003170 
0.000000 0.002185 -0.003167 
0.000158 0.002150 -0.003170 
0.000326 0.002037 -0.003180 
0.000327 0.002663 0.003650 
0.000161 0.002778 0.003647 
-0.000000 0.002814 0.003645 
-0.000161 0.002778 0.003647 
-0.000327 0.002663 0.003650 
0.000169 0.002530 0.001759 
0.000083 0.002645 0.001756 
-0.000000 0.002680 0.001753 
-0.000083 0.002645 0.001756 
-0.000169 0.002530 0.001759 
0.000000 0.002485 0.000000 
0.000000 0.002601 -0.000000 
0.000000 0.002635 -0.000000 
0.000000 0.002601 -0.000000 
0.000000 0.002485 -0.000000 
-0.000169 0.002530 -0.001759 
-0.000083 0.002645 -0.001756 
0.000000 0.002680 -0.001753 
0.000083 0.002645 -0.001756 
0.000169 0.002530 -0.001759 
-0.000326 0.002663 -0.003650 
-0.000161 0.002778 -0.003647 
0.000000 0.002814 -0.003645 
0.000161 0.002778 -0.003647 
0.000327 0.002663 -0.003650 
0.000323 0.003368 0.004108 
0.000160 0.003484 0.004110 
-0.000000 0.003521 0.004108 
-0.000160 0.003484 0.004110 
-0.000323 0.003368 0.004108 
0.000167 0.003239 0.001987 
0.000083 0.003355 0.001988 
-0.000000 0.003391 0.001987 
-0.000083 0.003355 0.001988 
-0.000167 0.003239 0.001987 
0.000000 0.003196 0.000000 
0.000000 0.003313 -0.000000 
0.000000 0.003348 -0.000000 
0.000000 0.003313 -0.000000 
0.000000 0.003196 -0.000000 
-0.000167 0.003239 -0.001987 
-0.000083 0.003355 -0.001988 
0.000000 0.003391 -0.001987 
0.000083 0.003355 -0.001988 
0.000167 0.003239 -0.001987 
-0.000323 0.003368 -0.004108 
-0.000160 0.003484 -0.004110 
0.000000 0.003521 -0.004108 
0.000160 0.003484 -0.004110 
0.000323 0.003368 -0.004108 
0.000317 0.004151 0.004553 
0.000158 0.004265 0.004559 
-0.000000 0.004303 0.004558 
-0.000158 0.004265 0.004559 
-0.000317 0.004151 0.004553 
0.000163 0.004026 0.002209 
0.000081 0.004141 0.002213 
-0.000000 0.004177 0.002213 
-0.000081 0.004141 0.002213 
-0.000163 0.004026 0.002209 
0.000000 0.003983 0.000000 
0.000000 0.004100 -0.000000 
0.000000 0.004135 -0.000000 
0.000000 0.004100 -0.000000 
0.000000 0.003983 -0.000000 
-0.000163 0.004026 -0.002209 
-0.000081 0.004141 -0.002213 
0.000000 0.004177 -0.002213 
0.000081 0.004141 -0.002213 
0.000163 0.004026 -0.002209 
-0.000317 0.004151 -0.004553 
-0.000158 0.004265 -0.004559 
0.000000 0.004303 -0.004558 
0.000158 0.004265 -0.004559 
0.000317 0.004151 -0.004553 
0.000309 0.005008 0.004985 
0.000155 0.005120 0.004994 
-0.000000 0.005158 0.004994 
-0.000155 0.005120 0.004994 
-0.000309 0.005008 0.004985 
0.000159 0.004886 0.002424 
0.000079 0.005000 0.002431 
-0.000000 0.005036 0.002431 
-0.000079 0.005000 0.002431 
-0.000159 0.004886 0.002424 
0.000000 0.004846 0.000000 
0.000000 0.004960 -0.000000 
0.000000 0.004996 -0.000000 
0.000000 0.004960 -0.000000 
0.000000 0.004845 -0.000000 
-0.000159 0.004886 -0.002424 
-0.000079 0.005000 -0.002431 
0.000000 0.005036 -0.002431 
0.000079 0.005000 -0.002431 
0.000159 0.004886 -0.002424 
-0.000309 0.005008 -0.004985 
-0.000155 0.005120 -0.004994 
0.000000 0.005158 -0.004994 
0.000155 0.005120 -0.004994 
0.000309 0.005008 -0.004985 
0.000301 0.005936 0.005405 
0.000151 0.006047 0.005415 
-0.000000 0.006083 0.005415 
-0.000151 0.006047 0.005415 
-0.000301 0.005936 0.005405 
0.000154 0.005819 0.002633 
0.000077 0.005930 0.002641 
-0.000000 0.005966 0.002642 
-0.000077 0.005930 0.002641 
-0.000154 0.005819 0.002633 
0.000000 0.005780 0.000000 
0.000000 0.005892 -0.000000 
0.000000 0.005927 -0.000000 
0.000000 0.005892 -0.000000 
0.000000 0.005780 -0.000000 
-0.000154 0.005819 -0.002633 
-0.000077 0.005930 -0.002641 
0.000000 0.005966 -0.002642 
0.000077 0.005930 -0.002641 
0.000154 0.005819 -0.002633 
-0.000301 0.005936 -0.005405 
-0.000151 0.006047 -0.005415 
0.000000 0.006083 -0.005415 
0.000151 0.006047 -0.005415 
0.000301 0.005936 -0.005405 
0.000291 0.006935 0.005810 
0.000146 0.007042 0.005822 
-0.000000 0.007078 0.005822 
-0.000146 0.007042 0.005822 
-0.000291 0.006935 0.005810 
0.000149 0.006821 0.002836 
0.000074 0.006929 0.002845 
0.000000 0.006965 0.002846 
-0.000074 0.006929 0.002845 
-0.000149 0.006821 0.002836 
0.000000 0.006783 0.000000 
0.000000 0.006892 -0.000000 
0.000000 0.006927 -0.000000 
0.000000 0.006892 -0.000000 
0.000000 0.006783 -0.000000 
-0.000149 0.006821 -0.002836 
-0.000074 0.006929 -0.002845 
0.000000 0.006965 -0.002846 
0.000074 0.006929 -0.002845 
0.000149 0.006821 -0.002836 
-0.000291 0.006935 -0.005810 
-0.000146 0.007042 -0.005822 
0.000000 0.007078 -0.005822 
0.000146 0.007042 -0.005822 
0.000291 0.006935 -0.005810 
0.000282 0.008000 0.006202 
0.000141 0.008104 0.006215 
-0.000000 0.008139 0.006215 
-0.000141 0.008104 0.006215 
-0.000282 0.008000 0.006202 
0.000144 0.007890 0.003031 
0.000072 0.007995 0.003041 
0.000000 0.008030 0.003043 
-0.000072 0.007995 0.003041 
-0.000144 0.007890 0.003031 
0.000000 0.007853 0.000000 
0.000000 0.007959 -0.000000 
0.000000 0.007994 -0.000000 
0.000000 0.007959 -0.000000 
0.000000 0.007853 -0.000000 
-0.000144 0.007890 -0.003031 
-0.000072 0.007995 -0.003041 
0.000000 0.008030 -0.003043 
0.000072 0.007995 -0.003041 
0.000144 0.007890 -0.003031 
-0.000282 0.008000 -0.006202 
-0.000141 0.008104 -0.006215 
0.000000 0.008139 -0.006215 
0.000141 0.008104 -0.006215 
0.000282 0.008000 -0.006202 
0.000272 0.009129 0.006580 
0.000136 0.009230 0.006593 
-0.000000 0.009264 0.006594 
-0.000136 0.009230 0.006593 
-0.000272 0.009129 0.006580 
0.000139 0.009024 0.003220 
0.000069 0.009125 0.003230 
0.000000 0.009159 0.003232 
-0.000069 0.009125 0.003230 
-0.000139 0.009024 0.003220 
0.000000 0.008988 0.000000 
0.000000 0.009091 -0.000000 
0.000000 0.009124 -0.000000 
0.000000 0.009091 -0.000000 
0.000000 0.008988 -0.000000 
-0.000139 0.009024 -0.003220 
-0.000069 0.009125 -0.003230 
0.000000 0.009159 -0.003232 
0.000069 0.009125 -0.003230 
0.000139 0.009024 -0.003220 
-0.000272 0.009129 -0.006580 
-0.000136 0.009230 -0.006593 
0.000000 0.009264 -0.006594 
0.000136 0.009230 -0.006593 
0.000272 0.009129 -0.006580 
0.000262 0.010321 0.006945 
0.000131 0.010418 0.006958 
-0.000000 0.010451 0.006959 
-0.000131 0.010418 0.006958 
-0.000262 0.010321 0.006945 
0.000133 0.010220 0.003402 
0.000066 0.010318 0.003413 
0.000000 0.010350 0.003415 
-0.000066 0.010317 0.003413 
-0.000133 0.010220 0.003402 
0.000000 0.010185 0.000000 
0.000000 0.010284 -0.000000 
0.000000 0.010317 -0.000000 
0.000000 0.010284 -0.000000 
0.000000 0.010185 -0.000000 
-0.000133 0.010220 -0.003402 
-0.000066 0.010318 -0.003413 
0.000000 0.010350 -0.003415 
0.000066 0.010317 -0.003413 
0.000133 0.010220 -0.003402 
-0.000262 0.010321 -0.006945 
-0.000131 0.010418 -0.006958 
0.000000 0.010451 -0.006959 
0.000131 0.010418 -0.006958 
0.000262 0.010321 -0.006945 
0.000251 0.011573 0.007296 
0.000126 0.011666 0.007309 
-0.000000 0.011697 0.007310 
-0.000126 0.011666 0.007309 
-0.000251 0.011573 0.007295 
0.000128 0.011475 0.003577 
0.000064 0.011569 0.003588 
0.000000 0.011601 0.003590 
-0.000064 0.011569 0.003588 
-0.000128 0.011475 0.003577 
0.000000 0.011442 0.000000 
0.000000 0.011537 -0.000000 
0.000000 0.011569 -0.000000 
0.000000 0.011537 -0.000000 
0.000000 0.011442 -0.000000 
-0.000128 0.011475 -0.003577 
-0.000064 0.011569 -0.003588 
0.000000 0.011601 -0.003590 
0.000064 0.011569 -0.003588 
0.000128 0.011475 -0.003577 
-0.000251 0.011573 -0.007296 
-0.000126 0.011666 -0.007309 
0.000000 0.011697 -0.007310 
0.000126 0.011666 -0.007309 
0.000251 0.011573 -0.007296 
0.000241 0.012882 0.007632 
0.000121 0.012971 0.007646 
-0.000000 0.013001 0.007647 
-0.000121 0.012971 0.007646 
-0.000241 0.012882 0.007632 
0.000123 0.012788 0.003746 
0.000061 0.012878 0.003756 
0.000000 0.012909 0.003759 
-0.000061 0.012878 0.003756 
-0.000123 0.012788 0.003746 
0.000000 0.012757 0.000000 
0.000000 0.012848 -0.000000 
0.000000 0.012878 -0.000000 
0.000000 0.012848 -0.000000 
0.000000 0.012757 -0.000000 
-0.000123 0.012788 -0.003746 
-0.000061 0.012878 -0.003756 
0.000000 0.012909 -0.003759 
0.000061 0.012878 -0.003756 
0.000123 0.012788 -0.003746 
-0.000241 0.012882 -0.007632 
-0.000121 0.012971 -0.007646 
0.000000 0.013001 -0.007647 
0.000121 0.012971 -0.007646 
0.000241 0.012882 -0.007632 
0.000231 0.014246 0.007955 
0.000116 0.014331 0.007968 
-0.000000 0.014360 0.007970 
-0.000116 0.014331 0.007968 
-0.000231 0.014245 0.007955 
0.000118 0.014156 0.003907 
0.000058 0.014243 0.003918 
0.000000 0.014271 0.003920 
-0.000058 0.014243 0.003917 
-0.000118 0.014156 0.003907 
0.000000 0.014126 0.000000 
0.000000 0.014213 -0.000000 
0.000000 0.014242 -0.000000 
0.000000 0.014213 -0.000000 
0.000000 0.014126 -0.000000 
-0.000118 0.014156 -0.003907 
-0.000058 0.014243 -0.003918 
0.000000 0.014271 -0.003920 
0.000058 0.014243 -0.003918 
0.000118 0.014156 -0.003907 
-0.000231 0.014246 -0.007955 
-0.000116 0.014331 -0.007968 
0.000000 0.014360 -0.007970 
0.000116 0.014331 -0.007968 
0.000231 0.014245 -0.007955 
0.000221 0.015662 0.008263 
0.000111 0.015744 0.008277 
-0.000000 0.015772 0.008278 
-0.000111 0.015744 0.008277 
-0.000221 0.015662 0.008263 
0.000112 0.015577 0.004061 
0.000056 0.015659 0.004072 
0.000000 0.015687 0.004074 
-0.000056 0.015659 0.004072 
-0.000112 0.015577 0.004061 
0.000000 0.015548 0.000000 
0.000000 0.015631 -0.000000 
0.000000 0.015659 -0.000000 
0.000000 0.015631 -0.000000 
0.000000 0.015548 -0.000000 
-0.000112 0.015577 -0.004061 
-0.000056 0.015659 -0.004072 
0.000000 0.015687 -0.004074 
0.000056 0.015659 -0.004072 
0.000112 0.015577 -0.004061 
-0.000221 0.015662 -0.008263 
-0.000111 0.015744 -0.008277 
0.000000 0.015772 -0.008278 
0.000111 0.015744 -0.008277 
0.000221 0.015662 -0.008263 
0.000210 0.017129 0.008558 
0.000106 0.017207 0.008572 
-0.000000 0.017234 0.008573 
-0.000106 0.017207 0.008572 
-0.000210 0.017129 0.008558 
0.000107 0.017048 0.004208 
0.000053 0.017127 0.004219 
0.000000 0.017153 0.004222 
-0.000053 0.017127 0.004219 
-0.000107 0.017048 0.004208 
0.000000 0.017020 0.000000 
0.000000 0.017100 -0.000000 
0.000000 0.017126 -0.000000 
0.000000 0.017100 -0.000000 
0.000000 0.017020 -0.000000 
-0.000107 0.017048 -0.004208 
-0.000053 0.017127 -0.004219 
0.000000 0.017153 -0.004222 
0.000053 0.017127 -0.004219 
0.000107 0.017048 -0.004208 
-0.000210 0.017129 -0.008558 
-0.000106 0.017207 -0.008572 
0.000000 0.017234 -0.008573 
0.000106 0.017207 -0.008572 
0.000210 0.017129 -0.008558 
0.000200 0.018644 0.008839 
0.000100 0.018719 0.008852 
-0.000000 0.018744 0.008854 
-0.000100 0.018719 0.008852 
-0.000200 0.018644 0.008839 
0.000102 0.018567 0.004348 
0.000051 0.018642 0.004359 
0.000000 0.018667 0.004362 
-0.000051 0.018642 0.004359 
-0.000102 0.018567 0.004348 
0.000000 0.018541 0.000000 
0.000000 0.018617 -0.000000 
0.000000 0.018641 -0.000000 
0.000000 0.018616 -0.000000 
0.000000 0.018541 -0.000000 
-0.000102 0.018567 -0.004348 
-0.000051 0.018642 -0.004359 
0.000000 0.018667 -0.004362 
0.000051 0.018642 -0.004359 
0.000102 0.018567 -0.004348 
-0.000200 0.018644 -0.008839 
-0.000100 0.018719 -0.008852 
0.000000 0.018744 -0.008854 
0.000101 0.018719 -0.008852 
0.000200 0.018644 -0.008839 
0.000190 0.020205 0.009105 
0.000095 0.020276 0.009119 
-0.000000 0.020300 0.009120 
-0.000095 0.020276 0.009119 
-0.000190 0.020205 0.009105 
0.000097 0.020132 0.004482 
0.000048 0.020203 0.004492 
0.000000 0.020227 0.004495 
-0.000048 0.020203 0.004492 
-0.000097 0.020132 0.004481 
0.000000 0.020107 0.000000 
0.000000 0.020179 -0.000000 
0.000000 0.020202 -0.000000 
0.000000 0.020179 -0.000000 
0.000000 0.020107 -0.000000 
-0.000097 0.020132 -0.004482 
-0.000048 0.020203 -0.004492 
0.000000 0.020227 -0.004495 
0.000048 0.020203 -0.004492 
0.000097 0.020132 -0.004482 
-0.000190 0.020205 -0.009105 
-0.000095 0.020276 -0.009119 
0.000000 0.020300 -0.009120 
0.000095 0.020276 -0.009119 
0.000190 0.020205 -0.009105 
0.000179 0.021809 0.009358 
0.000090 0.021876 0.009371 
0.000000 0.021899 0.009373 
-0.000090 0.021876 0.009371 
-0.000179 0.021809 0.009358 
0.000091 0.021740 0.004608 
0.000045 0.021807 0.004618 
0.000000 0.021830 0.004621 
-0.000045 0.021807 0.004618 
-0.000091 0.021740 0.004608 
0.000000 0.021716 0.000000 
0.000000 0.021784 -0.000000 
0.000000 0.021807 -0.000000 
0.000000 0.021784 -0.000000 
0.000000 0.021716 -0.000000 
-0.000091 0.021740 -0.004608 
-0.000045 0.021807 -0.004619 
0.000000 0.021830 -0.004621 
0.000045 0.021807 -0.004619 
0.000091 0.021740 -0.004608 
-0.000179 0.021809 -0.009358 
-0.000090 0.021876 -0.009371 
0.000000 0.021899 -0.009373 
0.000090 0.021876 -0.009371 
0.000179 0.021809 -0.009358 
0.000169 0.023454 0.009596 
0.000085 0.023517 0.009610 
0.000000 0.023539 0.009611 
-0.000085 0.023517 0.009610 
-0.000169 0.023454 0.009596 
0.000086 0.023389 0.004727 
0.000043 0.023452 0.004738 
0.000000 0.023474 0.004740 
-0.000043 0.023452 0.004738 
-0.000086 0.023389 0.004727 
0.000000 0.023367 0.000000 
0.000000 0.023431 -0.000000 
0.000000 0.023452 -0.000000 
0.000000 0.023431 -0.000000 
0.000000 0.023367 -0.000000 
-0.000086 0.023389 -0.004727 
-0.000043 0.023452 -0.004738 
0.000000 0.023474 -0.004740 
0.000043 0.023452 -0.004738 
0.000086 0.023389 -0.004727 
-0.000169 0.023454 -0.009596 
-0.000085 0.023517 -0.009610 
0.000000 0.023539 -0.009611 
0.000085 0.023517 -0.009610 
0.000169 0.023454 -0.009596 
0.000159 0.025138 0.009820 
0.000080 0.025197 0.009834 
0.000000 0.025217 0.009835 
-0.000080 0.025197 0.009834 
-0.000159 0.025138 0.009820 
0.000081 0.025077 0.004839 
0.000040 0.025136 0.004849 
0.000000 0.025156 0.004852 
-0.000040 0.025136 0.004849 
-0.000081 0.025077 0.004839 
0.000000 0.025056 0.000000 
0.000000 0.025116 -0.000000 
0.000000 0.025136 -0.000000 
0.000000 0.025116 -0.000000 
0.000000 0.025056 -0.000000 
-0.000081 0.025077 -0.004839 
-0.000040 0.025136 -0.004849 
0.000000 0.025156 -0.004852 
0.000040 0.025136 -0.004849 
0.000081 0.025077 -0.004839 
-0.000159 0.025138 -0.009820 
-0.000080 0.025197 -0.009834 
0.000000 0.025217 -0.009835 
0.000080 0.025197 -0.009834 
0.000159 0.025138 -0.009820 
0.000148 0.026858 0.010030 
0.000074 0.026913 0.010044 
0.000000 0.026932 0.010045 
-0.000074 0.026913 0.010044 
-0.000148 0.026858 0.010030 
0.000076 0.026801 0.004943 
0.000038 0.026856 0.004954 
0.000000 0.026875 0.004957 
-0.000037 0.026856 0.004954 
-0.000076 0.026801 0.004943 
0.000000 0.026782 0.000000 
0.000000 0.026838 -0.000000 
0.000000 0.026856 -0.000000 
0.000000 0.026838 -0.000000 
0.000000 0.026781 -0.000000 
-0.000075 0.026801 -0.004943 
-0.000037 0.026856 -0.004954 
0.000000 0.026875 -0.004957 
0.000038 0.026856 -0.004954 
0.000076 0.026801 -0.004943 
-0.000148 0.026858 -0.010030 
-0.000074 0.026913 -0.010044 
0.000000 0.026932 -0.010045 
0.000075 0.026913 -0.010044 
0.000148 0.026858 -0.010030 
0.000138 0.028612 0.010226 
0.000069 0.028664 0.010240 
0.000000 0.028681 0.010241 
-0.000069 0.028664 0.010240 
-0.000138 0.028612 0.010226 
0.000070 0.028559 0.005041 
0.000035 0.028611 0.005052 
0.000000 0.028628 0.005055 
-0.000035 0.028611 0.005052 
-0.000070 0.028559 0.005041 
0.000000 0.028541 0.000000 
0.000000 0.028593 -0.000000 
0.000000 0.028610 -0.000000 