<?xml version="1.0"?>
<VTKFile type="UnstructuredGrid"  version="0.1"  >
<UnstructuredGrid>
<Piece  NumberOfPoints="1025" NumberOfCells="640">
<Points>
<DataArray  type="Float32"  NumberOfComponents="3"  format="ascii">
0.000000 0.000000 0.000000 
0.750000 0.000000 0.000000 
1.500000 0.000000 0.000000 
2.250000 0.000000 0.000000 
3.000000 0.000000 0.000000 
0.000000 0.750000 0.000000 
0.750000 0.750000 0.000000 
1.500000 0.750000 0.000000 
2.250000 0.750000 0.000000 
3.000000 0.750000 0.000000 
0.000000 1.500000 0.000000 
0.750000 1.500000 0.000000 
1.500000 1.500000 0.000000 
2.250000 1.500000 0.000000 
3.000000 1.500000 0.000000 
0.000000 2.250000 0.000000 
0.750000 2.250000 0.000000 
1.500000 2.250000 0.000000 
2.250000 2.250000 0.000000 
3.000000 2.250000 0.000000 
0.000000 3.000000 0.000000 
0.750000 3.000000 0.000000 
1.500000 3.000000 0.000000 
2.250000 3.000000 0.000000 
3.000000 3.000000 0.000000 
0.000000 0.000000 0.250000 
0.750000 0.000000 0.250000 
1.500000 0.000000 0.250000 
2.250000 0.000000 0.250000 
3.000000 0.000000 0.250000 
0.000000 0.750000 0.250000 
0.750000 0.750000 0.250000 
1.500000 0.750000 0.250000 
2.250000 0.750000 0.250000 
3.000000 0.750000 0.250000 
0.000000 1.500000 0.250000 
0.750000 1.500000 0.250000 
1.500000 1.500000 0.250000 
2.250000 1.500000 0.250000 
3.000000 1.500000 0.250000 
0.000000 2.250000 0.250000 
0.750000 2.250000 0.250000 
1.500000 2.250000 0.250000 
2.250000 2.250000 0.250000 
3.000000 2.250000 0.250000 
0.000000 3.000000 0.250000 
0.750000 3.000000 0.250000 
1.500000 3.000000 0.250000 
2.250000 3.000000 0.250000 
3.000000 3.000000 0.250000 
0.000000 0.000000 0.500000 
0.750000 0.000000 0.500000 
1.500000 0.000000 0.500000 
2.250000 0.000000 0.500000 
3.000000 0.000000 0.500000 
0.000000 0.750000 0.500000 
0.750000 0.750000 0.500000 
1.500000 0.750000 0.500000 
2.250000 0.750000 0.500000 
3.000000 0.750000 0.500000 
0.000000 1.500000 0.500000 
0.750000 1.500000 0.500000 
1.500000 1.500000 0.500000 
2.250000 1.500000 0.500000 
3.000000 1.500000 0.500000 
0.000000 2.250000 0.500000 
0.750000 2.250000 0.500000 
1.500000 2.250000 0.500000 
2.250000 2.250000 0.500000 
3.000000 2.250000 0.500000 
0.000000 3.000000 0.500000 
0.750000 3.000000 0.500000 
1.500000 3.000000 0.500000 
2.250000 3.000000 0.500000 
3.000000 3.000000 0.500000 
0.000000 0.000000 0.750000 
0.750000 0.000000 0.750000 
1.500000 0.000000 0.750000 
2.250000 0.000000 0.750000 
3.000000 0.000000 0.750000 
0.000000 0.750000 0.750000 
0.750000 0.750000 0.750000 
1.500000 0.750000 0.750000 
2.250000 0.750000 0.750000 
3.000000 0.750000 0.750000 
0.000000 1.500000 0.750000 
0.750000 1.500000 0.750000 
1.500000 1.500000 0.750000 
2.250000 1.500000 0.750000 
3.000000 1.500000 0.750000 
0.000000 2.250000 0.750000 
0.750000 2.250000 0.750000 
1.500000 2.250000 0.750000 
2.250000 2.250000 0.750000 
3.000000 2.250000 0.750000 
0.000000 3.000000 0.750000 
0.750000 3.000000 0.750000 
1.500000 3.000000 0.750000 
2.250000 3.000000 0.750000 
3.000000 3.000000 0.750000 
0.000000 0.000000 1.000000 
0.750000 0.000000 1.000000 
1.500000 0.000000 1.000000 
2.250000 0.000000 1.000000 
3.000000 0.000000 1.000000 
0.000000 0.750000 1.000000 
0.750000 0.750000 1.000000 
1.500000 0.750000 1.000000 
2.250000 0.750000 1.000000 
3.000000 0.750000 1.000000 
0.000000 1.500000 1.000000 
0.750000 1.500000 1.000000 
1.500000 1.500000 1.000000 
2.250000 1.500000 1.000000 
3.000000 1.500000 1.000000 
0.000000 2.250000 1.000000 
0.750000 2.250000 1.000000 
1.500000 2.250000 1.000000 
2.250000 2.250000 1.000000 
3.000000 2.250000 1.000000 
0.000000 3.000000 1.000000 
0.750000 3.000000 1.000000 
1.500000 3.000000 1.000000 
2.250000 3.000000 1.000000 
3.000000 3.000000 1.000000 
0.000000 0.000000 1.250000 
0.750000 0.000000 1.250000 
1.500000 0.000000 1.250000 
2.250000 0.000000 1.250000 
3.000000 0.000000 1.250000 
0.000000 0.750000 1.250000 
0.750000 0.750000 1.250000 
1.500000 0.750000 1.250000 
2.250000 0.750000 1.250000 
3.000000 0.750000 1.250000 
0.000000 1.500000 1.250000 
0.750000 1.500000 1.250000 
1.500000 1.500000 1.250000 
2.250000 1.500000 1.250000 
3.000000 1.500000 1.250000 
0.000000 2.250000 1.250000 
0.750000 2.250000 1.250000 
1.500000 2.250000 1.250000 
2.250000 2.250000 1.250000 
3.000000 2.250000 1.250000 
0.000000 3.000000 1.250000 
0.750000 3.000000 1.250000 
1.500000 3.000000 1.250000 
2.250000 3.000000 1.250000 
3.000000 3.000000 1.250000 
0.000000 0.000000 1.500000 
0.750000 0.000000 1.500000 
1.500000 0.000000 1.500000 
2.250000 0.000000 1.500000 
3.000000 0.000000 1.500000 
0.000000 0.750000 1.500000 
0.750000 0.750000 1.500000 
1.500000 0.750000 1.500000 
2.250000 0.750000 1.500000 
3.000000 0.750000 1.500000 
0.000000 1.500000 1.500000 
0.750000 1.500000 1.500000 
1.500000 1.500000 1.500000 
2.250000 1.500000 1.500000 
3.000000 1.500000 1.500000 
0.000000 2.250000 1.500000 
0.750000 2.250000 1.500000 
1.500000 2.250000 1.500000 
2.250000 2.250000 1.500000 
3.000000 2.250000 1.500000 
0.000000 3.000000 1.500000 
0.750000 3.000000 1.500000 
1.500000 3.000000 1.500000 
2.250000 3.000000 1.500000 
3.000000 3.000000 1.500000 
0.000000 0.000000 1.750000 
0.750000 0.000000 1.750000 
1.500000 0.000000 1.750000 
2.250000 0.000000 1.750000 
3.000000 0.000000 1.750000 
0.000000 0.750000 1.750000 
0.750000 0.750000 1.750000 
1.500000 0.750000 1.750000 
2.250000 0.750000 1.750000 
3.000000 0.750000 1.750000 
0.000000 1.500000 1.750000 
0.750000 1.500000 1.750000 
1.500000 1.500000 1.750000 
2.250000 1.500000 1.750000 
3.000000 1.500000 1.750000 
0.000000 2.250000 1.750000 
0.750000 2.250000 1.750000 
1.500000 2.250000 1.750000 
2.250000 2.250000 1.750000 
3.000000 2.250000 1.750000 
0.000000 3.000000 1.750000 
0.750000 3.000000 1.750000 
1.500000 3.000000 1.750000 
2.250000 3.000000 1.750000 
3.000000 3.000000 1.750000 
0.000000 0.000000 2.000000 
0.750000 0.000000 2.000000 
1.500000 0.000000 2.000000 
2.250000 0.000000 2.000000 
3.000000 0.000000 2.000000 
0.000000 0.750000 2.000000 
0.750000 0.750000 2.000000 
1.500000 0.750000 2.000000 
2.250000 0.750000 2.000000 
3.000000 0.750000 2.000000 
0.000000 1.500000 2.000000 
0.750000 1.500000 2.000000 
1.500000 1.500000 2.000000 
2.250000 1.500000 2.000000 
3.000000 1.500000 2.000000 
0.000000 2.250000 2.000000 
0.750000 2.250000 2.000000 
1.500000 2.250000 2.000000 
2.250000 2.250000 2.000000 
3.000000 2.250000 2.000000 
0.000000 3.000000 2.000000 
0.750000 3.000000 2.000000 
1.500000 3.000000 2.000000 
2.250000 3.000000 2.000000 
3.000000 3.000000 2.000000 
0.000000 0.000000 2.250000 
0.750000 0.000000 2.250000 
1.500000 0.000000 2.250000 
2.250000 0.000000 2.250000 
3.000000 0.000000 2.250000 
0.000000 0.750000 2.250000 
0.750000 0.750000 2.250000 
1.500000 0.750000 2.250000 
2.250000 0.750000 2.250000 
3.000000 0.750000 2.250000 
0.000000 1.500000 2.250000 
0.750000 1.500000 2.250000 
1.500000 1.500000 2.250000 
2.250000 1.500000 2.250000 
3.000000 1.500000 2.250000 
0.000000 2.250000 2.250000 
0.750000 2.250000 2.250000 
1.500000 2.250000 2.250000 
2.250000 2.250000 2.250000 
3.000000 2.250000 2.250000 
0.000000 3.000000 2.250000 
0.750000 3.000000 2.250000 
1.500000 3.000000 2.250000 
2.250000 3.000000 2.250000 
3.000000 3.000000 2.250000 
0.000000 0.000000 2.500000 
0.750000 0.000000 2.500000 
1.500000 0.000000 2.500000 
2.250000 0.000000 2.500000 
3.000000 0.000000 2.500000 
0.000000 0.750000 2.500000 
0.750000 0.750000 2.500000 
1.500000 0.750000 2.500000 
2.250000 0.750000 2.500000 
3.000000 0.750000 2.500000 
0.000000 1.500000 2.500000 
0.750000 1.500000 2.500000 
1.500000 1.500000 2.500000 
2.250000 1.500000 2.500000 
3.000000 1.500000 2.500000 
0.000000 2.250000 2.500000 
0.750000 2.250000 2.500000 
1.500000 2.250000 2.500000 
2.250000 2.250000 2.500000 
3.000000 2.250000 2.500000 
0.000000 3.000000 2.500000 
0.750000 3.000000 2.500000 
1.500000 3.000000 2.500000 
2.250000 3.000000 2.500000 
3.000000 3.000000 2.500000 
0.000000 0.000000 2.750000 
0.750000 0.000000 2.750000 
1.500000 0.000000 2.750000 
2.250000 0.000000 2.750000 
3.000000 0.000000 2.750000 
0.000000 0.750000 2.750000 
0.750000 0.750000 2.750000 
1.500000 0.750000 2.750000 
2.250000 0.750000 2.750000 
3.000000 0.750000 2.750000 
0.000000 1.500000 2.750000 
0.750000 1.500000 2.750000 
1.500000 1.500000 2.750000 
2.250000 1.500000 2.750000 
3.000000 1.500000 2.750000 
0.000000 2.250000 2.750000 
0.750000 2.250000 2.750000 
1.500000 2.250000 2.750000 
2.250000 2.250000 2.750000 
3.000000 2.250000 2.750000 
0.000000 3.000000 2.750000 
0.750000 3.000000 2.750000 
1.500000 3.000000 2.750000 
2.250000 3.000000 2.750000 
3.000000 3.000000 2.750000 
0.000000 0.000000 3.000000 
0.750000 0.000000 3.000000 
1.500000 0.000000 3.000000 
2.250000 0.000000 3.000000 
3.000000 0.000000 3.000000 
0.000000 0.750000 3.000000 
0.750000 0.750000 3.000000 
1.500000 0.750000 3.000000 
2.250000 0.750000 3.000000 
3.000000 0.750000 3.000000 
0.000000 1.500000 3.000000 
0.750000 1.500000 3.000000 
1.500000 1.500000 3.000000 
2.250000 1.500000 3.000000 
3.000000 1.500000 3.000000 
0.000000 2.250000 3.000000 
0.750000 2.250000 3.000000 
1.500000 2.250000 3.000000 
2.250000 2.250000 3.000000 
3.000000 2.250000 3.000000 
0.000000 3.000000 3.000000 
0.750000 3.000000 3.000000 
1.500000 3.000000 3.000000 
2.250000 3.000000 3.000000 
3.000000 3.000000 3.000000 
0.000000 0.000000 3.250000 
0.750000 0.000000 3.250000 
1.500000 0.000000 3.250000 
2.250000 0.000000 3.250000 
3.000000 0.000000 3.250000 
0.000000 0.750000 3.250000 
0.750000 0.750000 3.250000 
1.500000 0.750000 3.250000 
2.250000 0.750000 3.250000 
3.000000 0.750000 3.250000 
0.000000 1.500000 3.250000 
0.750000 1.500000 3.250000 
1.500000 1.500000 3.250000 
2.250000 1.500000 3.250000 
3.000000 1.500000 3.250000 
0.000000 2.250000 3.250000 
0.750000 2.250000 3.250000 
1.500000 2.250000 3.250000 
2.250000 2.250000 3.250000 
3.000000 2.250000 3.250000 
0.000000 3.000000 3.250000 
0.750000 3.000000 3.250000 
1.500000 3.000000 3.250000 
2.250000 3.000000 3.250000 
[...]
<PointData  Scalars="u">
<DataArray  type="Float32"  Name="VectorField1"  NumberOfComponents="3" format="ascii">
0.000000 0.000000 0.000000 
0.000000 0.000000 0.000000 
0.000000 0.000000 0.000000 
0.000000 0.000000 0.000000 
0.000000 0.000000 0.000000 
0.000000 0.000000 0.000000 
0.000000 0.000000 0.000000 
0.000000 0.000000 0.000000 
0.000000 0.000000 0.000000 
0.000000 0.000000 0.000000 
0.000000 0.000000 0.000000 
0.000000 0.000000 0.000000 
0.000000 0.000000 0.000000 
0.000000 0.000000 0.000000 
0.000000 0.000000 0.000000 
0.000000 0.000000 0.000000 
0.000000 0.000000 0.000000 
0.000000 0.000000 0.000000 
0.000000 0.000000 0.000000 
0.000000 0.000000 0.000000 
0.000000 0.000000 0.000000 
0.000000 0.000000 0.000000 
0.000000 0.000000 0.000000 
0.000000 0.000000 0.000000 
0.000000 0.000000 0.000000 
0.000103 0.000110 0.000404 
0.000026 0.000133 0.000376 
0.000000 0.000138 0.000385 
-0.000026 0.000133 0.000376 
-0.000103 0.000110 0.000404 
0.000052 0.000039 0.000177 
0.000014 0.000064 0.000155 
-0.000000 0.000067 0.000157 
-0.000014 0.000064 0.000155 
-0.000052 0.000039 0.000177 
-0.000000 0.000035 -0.000000 
-0.000000 0.000061 -0.000000 
-0.000000 0.000065 -0.000000 
-0.000000 0.000061 -0.000000 
-0.000000 0.000035 0.000000 
-0.000052 0.000039 -0.000177 
-0.000014 0.000064 -0.000155 
-0.000000 0.000067 -0.000157 
0.000014 0.000064 -0.000155 
0.000052 0.000039 -0.000177 
-0.000103 0.000110 -0.000404 
-0.000026 0.000133 -0.000376 
-0.000000 0.000138 -0.000385 
0.000026 0.000133 -0.000376 
0.000103 0.000110 -0.000404 
0.000155 0.000250 0.000773 
0.000056 0.000293 0.000741 
-0.000000 0.000302 0.000747 
-0.000056 0.000293 0.000741 
-0.000155 0.000250 0.000773 
0.000080 0.000162 0.000351 
0.000029 0.000204 0.000326 
-0.000000 0.000212 0.000325 
-0.000029 0.000204 0.000326 
-0.000080 0.000162 0.000351 
-0.000000 0.000143 -0.000000 
-0.000000 0.000186 -0.000000 
-0.000000 0.000194 -0.000000 
-0.000000 0.000186 -0.000000 
-0.000000 0.000143 0.000000 
-0.000080 0.000162 -0.000352 
-0.000029 0.000204 -0.000326 
-0.000000 0.000212 -0.000325 
0.000029 0.000204 -0.000326 
0.000080 0.000162 -0.000351 
-0.000155 0.000250 -0.000773 
-0.000056 0.000293 -0.000741 
-0.000000 0.000302 -0.000747 
0.000056 0.000293 -0.000741 
0.000155 0.000250 -0.000773 
0.000185 0.000442 0.001122 
0.000078 0.000499 0.001096 
-0.000000 0.000513 0.001097 
-0.000078 0.000499 0.001096 
-0.000185 0.000442 0.001122 
0.000097 0.000349 0.000522 
0.000041 0.000405 0.000500 
-0.000000 0.000417 0.000496 
-0.000041 0.000405 0.000500 
-0.000097 0.000349 0.000522 
-0.000000 0.000322 -0.000000 
-0.000000 0.000378 -0.000000 
-0.000000 0.000391 -0.000000 
-0.000000 0.000378 -0.000000 
-0.000000 0.000322 0.000000 
-0.000097 0.000349 -0.000522 
-0.000041 0.000405 -0.000500 
-0.000000 0.000417 -0.000496 
0.000041 0.000405 -0.000500 
0.000097 0.000349 -0.000522 
-0.000185 0.000442 -0.001122 
-0.000078 0.000499 -0.001096 
-0.000000 0.000513 -0.001097 
0.000078 0.000499 -0.001096 
0.000185 0.000442 -0.001122 
0.000202 0.000691 0.001458 
0.000092 0.000756 0.001439 
-0.000000 0.000775 0.001438 
-0.000092 0.000756 0.001439 
-0.000202 0.000691 0.001458 
0.000106 0.000598 0.000688 
0.000048 0.000662 0.000671 
-0.000000 0.000679 0.000667 
-0.000048 0.000662 0.000671 
-0.000106 0.000598 0.000688 
-0.000000 0.000568 -0.000000 
-0.000000 0.000633 -0.000000 
-0.000000 0.000648 -0.000000 
-0.000000 0.000633 -0.000000 
-0.000000 0.000568 0.000000 
-0.000106 0.000598 -0.000688 
-0.000048 0.000662 -0.000671 
-0.000000 0.000679 -0.000667 
0.000048 0.000662 -0.000671 
0.000106 0.000598 -0.000688 
-0.000202 0.000691 -0.001458 
-0.000092 0.000756 -0.001439 
-0.000000 0.000775 -0.001438 
0.000092 0.000756 -0.001439 
0.000202 0.000691 -0.001458 
0.000211 0.000997 0.001785 
0.000100 0.001068 0.001773 
-0.000000 0.001089 0.001771 
-0.000100 0.001068 0.001773 
-0.000211 0.000997 0.001785 
0.000110 0.000905 0.000850 
0.000052 0.000975 0.000839 
-0.000000 0.000994 0.000835 
-0.000052 0.000975 0.000839 
-0.000110 0.000905 0.000850 
-0.000000 0.000874 -0.000000 
-0.000000 0.000945 -0.000000 
-0.000000 0.000963 -0.000000 
-0.000000 0.000945 -0.000000 
-0.000000 0.000874 0.000000 
-0.000110 0.000905 -0.000850 
-0.000053 0.000975 -0.000839 
-0.000000 0.000994 -0.000835 
0.000052 0.000975 -0.000839 
0.000110 0.000905 -0.000850 
-0.000211 0.000997 -0.001785 
-0.000100 0.001068 -0.001773 
-0.000000 0.001089 -0.001771 
0.000100 0.001068 -0.001773 
0.000211 0.000997 -0.001785 
0.000215 0.001358 0.002103 
0.000104 0.001432 0.002097 
-0.000000 0.001455 0.002095 
-0.000104 0.001432 0.002097 
-0.000215 0.001358 0.002103 
0.000112 0.001268 0.001007 
0.000054 0.001342 0.001002 
-0.000000 0.001363 0.000999 
-0.000054 0.001342 0.001002 
-0.000112 0.001268 0.001007 
-0.000000 0.001237 -0.000000 
-0.000000 0.001312 -0.000000 
-0.000000 0.001333 -0.000000 
-0.000000 0.001312 -0.000000 
-0.000000 0.001237 0.000000 
-0.000112 0.001268 -0.001007 
-0.000054 0.001342 -0.001002 
-0.000000 0.001363 -0.000999 
0.000054 0.001342 -0.001002 
0.000112 0.001268 -0.001007 
-0.000215 0.001358 -0.002103 
-0.000104 0.001432 -0.002097 
-0.000000 0.001455 -0.002095 
0.000104 0.001432 -0.002097 
0.000215 0.001358 -0.002103 
0.000215 0.001773 0.002412 
0.000106 0.001849 0.002411 
-0.000000 0.001873 0.002409 
-0.000106 0.001849 0.002411 
-0.000215 0.001773 0.002412 
0.000111 0.001686 0.001161 
0.000055 0.001761 0.001159 
-0.000000 0.001784 0.001157 
-0.000055 0.001761 0.001159 
-0.000111 0.001686 0.001161 
-0.000000 0.001656 -0.000000 
-0.000000 0.001732 -0.000000 
-0.000000 0.001754 -0.000000 
-0.000000 0.001732 -0.000000 
-0.000000 0.001656 0.000000 
-0.000111 0.001686 -0.001161 
-0.000055 0.001761 -0.001159 
-0.000000 0.001784 -0.001157 
0.000055 0.001761 -0.001159 
0.000111 0.001686 -0.001161 
-0.000215 0.001773 -0.002412 
-0.000106 0.001849 -0.002411 
-0.000000 0.001873 -0.002409 
0.000106 0.001849 -0.002411 
0.000215 0.001773 -0.002412 
0.000212 0.002241 0.002713 
0.000105 0.002316 0.002715 
-0.000000 0.002341 0.002714 
-0.000105 0.002316 0.002715 
-0.000212 0.002241 0.002713 
0.000110 0.002156 0.001311 
0.000054 0.002232 0.001312 
-0.000000 0.002256 0.001311 
-0.000054 0.002232 0.001312 
-0.000110 0.002156 0.001311 
-0.000000 0.002127 -0.000000 
-0.000000 0.002204 -0.000000 
-0.000000 0.002227 -0.000000 
-0.000000 0.002204 -0.000000 
-0.000000 0.002127 0.000000 
-0.000110 0.002156 -0.001311 
-0.000054 0.002232 -0.001312 
-0.000000 0.002256 -0.001311 
0.000054 0.002232 -0.001312 
0.000110 0.002156 -0.001311 
-0.000212 0.002241 -0.002713 
-0.000105 0.002316 -0.002715 
-0.000000 0.002341 -0.002714 
0.000105 0.002316 -0.002715 
0.000212 0.002241 -0.002713 
0.000208 0.002759 0.003006 
0.000104 0.002834 0.003010 
-0.000000 0.002859 0.003009 
-0.000104 0.002834 0.003010 
-0.000208 0.002759 0.003006 
0.000107 0.002677 0.001456 
0.000053 0.002752 0.001460 
-0.000000 0.002776 0.001459 
-0.000053 0.002752 0.001460 
-0.000107 0.002677 0.001456 
-0.000000 0.002649 -0.000000 
-0.000000 0.002725 -0.000000 
-0.000000 0.002749 -0.000000 
-0.000000 0.002725 -0.000000 
-0.000000 0.002649 0.000000 
-0.000107 0.002677 -0.001457 
-0.000053 0.002752 -0.001460 
-0.000000 0.002776 -0.001459 
0.000053 0.002752 -0.001460 
0.000107 0.002677 -0.001456 
-0.000208 0.002759 -0.003006 
-0.000104 0.002834 -0.003010 
-0.000000 0.002859 -0.003009 
0.000104 0.002834 -0.003010 
0.000208 0.002759 -0.003006 
0.000203 0.003326 0.003289 
0.000101 0.003400 0.003295 
-0.000000 0.003424 0.003295 
-0.000101 0.003400 0.003295 
-0.000203 0.003326 0.003289 
0.000104 0.003247 0.001598 
0.000052 0.003321 0.001602 
-0.000000 0.003345 0.001603 
-0.000052 0.003321 0.001602 
-0.000104 0.003247 0.001598 
-0.000000 0.003220 -0.000000 
-0.000000 0.003295 -0.000000 
-0.000000 0.003318 -0.000000 
-0.000000 0.003295 -0.000000 
-0.000000 0.003220 0.000000 
-0.000104 0.003247 -0.001598 
-0.000052 0.003321 -0.001602 
-0.000000 0.003345 -0.001603 
0.000052 0.003321 -0.001602 
0.000104 0.003247 -0.001598 
-0.000203 0.003326 -0.003289 
-0.000101 0.003400 -0.003295 
-0.000000 0.003424 -0.003295 
0.000101 0.003400 -0.003295 
0.000203 0.003326 -0.003289 
0.000197 0.003940 0.003564 
0.000099 0.004012 0.003571 
-0.000000 0.004036 0.003571 
-0.000099 0.004012 0.003571 
-0.000197 0.003940 0.003564 
0.000101 0.003863 0.001735 
0.000050 0.003936 0.001740 
-0.000000 0.003960 0.001741 
-0.000050 0.003936 0.001740 
-0.000101 0.003863 0.001735 
-0.000000 0.003837 -0.000000 
-0.000000 0.003911 -0.000000 
-0.000000 0.003934 -0.000000 
-0.000000 0.003911 -0.000000 
-0.000000 0.003837 0.000000 
-0.000101 0.003863 -0.001735 
-0.000050 0.003936 -0.001740 
-0.000000 0.003960 -0.001741 
0.000050 0.003936 -0.001740 
0.000101 0.003863 -0.001735 
-0.000197 0.003940 -0.003564 
-0.000099 0.004012 -0.003571 
-0.000000 0.004036 -0.003571 
0.000099 0.004012 -0.003571 
0.000197 0.003940 -0.003564 
0.000190 0.004600 0.003829 
0.000095 0.004670 0.003837 
-0.000000 0.004693 0.003837 
-0.000096 0.004670 0.003837 
-0.000190 0.004600 0.003829 
0.000097 0.004526 0.001867 
0.000048 0.004596 0.001873 
-0.000000 0.004619 0.001874 
-0.000048 0.004596 0.001873 
-0.000097 0.004526 0.001867 
-0.000000 0.004501 -0.000000 
-0.000000 0.004572 -0.000000 
-0.000000 0.004595 -0.000000 
-0.000000 0.004572 -0.000000 
-0.000000 0.004501 0.000000 
-0.000097 0.004526 -0.001867 
-0.000048 0.004596 -0.001873 
-0.000000 0.004619 -0.001874 
0.000048 0.004596 -0.001873 
0.000097 0.004526 -0.001867 
-0.000190 0.004600 -0.003829 
-0.000096 0.004670 -0.003837 
-0.000000 0.004693 -0.003837 
0.000095 0.004670 -0.003837 
0.000190 0.004600 -0.003829 
0.000184 0.005303 0.004085 
0.000092 0.005371 0.004093 
-0.000000 0.005393 0.004094 
-0.000092 0.005371 0.004093 
-0.000184 0.005303 0.004085 
0.000094 0.005231 0.001995 
0.000047 0.005300 0.002001 
-0.000000 0.005322 0.002003 
-0.000047 0.005300 0.002001 
-0.000094 0.005231 0.001995 
-0.000000 0.005207 -0.000000 
-0.000000 0.005276 -0.000000 
-0.000000 0.005299 -0.000000 
-0.000000 0.005276 -0.000000 
-0.000000 0.005207 0.000000 
-0.000094 0.005231 -0.001995 
-0.000047 0.005300 -0.002001 
-0.000000 0.005322 -0.002003 
0.000047 0.005300 -0.002001 
0.000094 0.005231 -0.001995 
-0.000184 0.005303 -0.004085 
-0.000092 0.005371 -0.004093 
-0.000000 0.005393 -0.004094 
0.000092 0.005371 -0.004093 
0.000184 0.005303 -0.004085 
0.000177 0.006048 0.004331 
0.000089 0.006113 0.004340 
-0.000000 0.006136 0.004341 
-0.000089 0.006113 0.004340 
-0.000177 0.006048 0.004331 
0.000090 0.005979 0.002118 
0.000045 0.006045 0.002125 
-0.000000 0.006067 0.002126 
-0.000045 0.006045 0.002125 
-0.000090 0.005979 0.002118 
-0.000000 0.005956 -0.000000 
-0.000000 0.006023 -0.000000 
-0.000000 0.006045 -0.000000 
-0.000000 0.006023 -0.000000 
-0.000000 0.005956 0.000000 
-0.000090 0.005979 -0.002118 
-0.000045 0.006045 -0.002125 
-0.000000 0.006067 -0.002126 
0.000045 0.006045 -0.002125 
0.000090 0.005979 -0.002118 
-0.000177 0.006048 -0.004331 
-0.000089 0.006113 -0.004340 
-0.000000 0.006136 -0.004341 
0.000089 0.006113 -0.004340 
0.000177 0.006048 -0.004331 
0.000170 0.006834 0.004568 
0.000085 0.006897 0.004577 
-0.000000 0.006918 0.004578 
-0.000085 0.006897 0.004577 
-0.000170 0.006834 0.004568 
0.000087 0.006768 0.002236 
0.000043 0.006831 0.002243 
-0.000000 0.006852 0.002245 
-0.000043 0.006831 0.002243 
-0.000087 0.006768 0.002236 
-0.000000 0.006745 -0.000000 
-0.000000 0.006810 -0.000000 
-0.000000 0.006831 -0.000000 
-0.000000 0.006810 -0.000000 
-0.000000 0.006745 0.000000 
-0.000087 0.006768 -0.002236 
-0.000043 0.006831 -0.002243 
-0.000000 0.006852 -0.002245 
0.000043 0.006831 -0.002243 
0.000087 0.006768 -0.002236 
-0.000170 0.006834 -0.004568 
-0.000085 0.006897 -0.004577 
-0.000000 0.006918 -0.004578 
0.000085 0.006897 -0.004577 
0.000170 0.006834 -0.004568 
0.000163 0.007658 0.004796 
0.000082 0.007718 0.004805 
-0.000000 0.007739 0.004806 
-0.000082 0.007718 0.004805 
-0.000163 0.007658 0.004796 
0.000083 0.007595 0.002350 
0.000041 0.007656 0.002357 
-0.000000 0.007676 0.002359 
-0.000041 0.007656 0.002357 
-0.000083 0.007595 0.002350 
-0.000000 0.007573 -0.000000 
-0.000000 0.007635 -0.000000 
-0.000000 0.007655 -0.000000 
-0.000000 0.007635 -0.000000 
-0.000000 0.007573 0.000000 
-0.000083 0.007595 -0.002350 
-0.000041 0.007656 -0.002357 
-0.000000 0.007676 -0.002359 
0.000041 0.007656 -0.002357 
0.000083 0.007595 -0.002350 
-0.000163 0.007658 -0.004796 
-0.000082 0.007718 -0.004805 
-0.000000 0.007739 -0.004806 
0.000082 0.007718 -0.004805 
0.000163 0.007658 -0.004796 
0.000156 0.008519 0.005014 
0.000078 0.008577 0.005023 
-0.000000 0.008597 0.005024 
-0.000079 0.008577 0.005023 
-0.000156 0.008519 0.005014 
0.000080 0.008459 0.002459 
0.000039 0.008517 0.002466 
-0.000000 0.008537 0.002468 
-0.000040 0.008517 0.002466 
-0.000080 0.008459 0.002459 
-0.000000 0.008438 -0.000000 
-0.000000 0.008497 -0.000000 
-0.000000 0.008517 -0.000000 
-0.000000 0.008497 -0.000000 
-0.000000 0.008438 0.000000 
-0.000080 0.008459 -0.002459 
-0.000040 0.008517 -0.002467 
-0.000000 0.008537 -0.002468 
0.000039 0.008517 -0.002466 
0.000080 0.008459 -0.002459 
-0.000156 0.008519 -0.005014 
-0.000079 0.008577 -0.005023 
-0.000000 0.008597 -0.005024 
0.000078 0.008577 -0.005023 
0.000156 0.008519 -0.005014 
0.000149 0.009416 0.005222 
0.000075 0.009472 0.005232 
-0.000000 0.009491 0.005233 
-0.000075 0.009472 0.005232 
-0.000149 0.009416 0.005222 
0.000076 0.009358 0.002563 
0.000038 0.009415 0.002571 
-0.000000 0.009433 0.002573 
-0.000038 0.009415 0.002571 
-0.000076 0.009359 0.002564 
-0.000000 0.009339 -0.000000 
-0.000000 0.009396 -0.000000 
-0.000000 0.009414 -0.000000 
-0.000000 0.009396 -0.000000 
-0.000000 0.009339 0.000000 
-0.000076 0.009358 -0.002564 
-0.000038 0.009415 -0.002571 
-0.000000 0.009433 -0.002573 
0.000038 0.009415 -0.002571 
0.000076 0.009359 -0.002564 
-0.000149 0.009416 -0.005223 
-0.000075 0.009472 -0.005232 
-0.000000 0.009491 -0.005233 
0.000075 0.009472 -0.005232 
0.000149 0.009416 -0.005222 
0.000142 0.010347 0.005421 
0.000071 0.010400 0.005431 
-0.000000 0.010418 0.005432 
-0.000072 0.010400 0.005431 
-0.000142 0.010347 0.005422 
0.000072 0.010292 0.002663 
0.000036 0.010346 0.002670 
-0.000000 0.010363 0.002672 
-0.000036 0.010346 0.002670 
-0.000073 0.010292 0.002663 
-0.000000 0.010274 -0.000000 
-0.000000 0.010327 -0.000000 
-0.000000 0.010345 -0.000000 
-0.000000 0.010327 -0.000000 
-0.000000 0.010274 0.000000 
-0.000073 0.010292 -0.002663 
-0.000036 0.010346 -0.002670 
-0.000000 0.010363 -0.002672 
0.000036 0.010346 -0.002670 
0.000072 0.010292 -0.002663 
-0.000142 0.010347 -0.005422 
-0.000072 0.010400 -0.005431 
-0.000000 0.010418 -0.005432 
0.000071 0.010400 -0.005431 
0.000142 0.010347 -0.005422 
0.000135 0.011311 0.005611 
0.000068 0.011361 0.005620 
-0.000000 0.011378 0.005621 
-0.000068 0.011361 0.005620 
-0.000135 0.011311 0.005611 
0.000069 0.011258 0.002758 
0.000034 0.011309 0.002765 
-0.000000 0.011326 0.002767 
-0.000034 0.011309 0.002765 
-0.000069 0.011258 0.002758 
-0.000000 0.011240 -0.000000 
-0.000000 0.011292 -0.000000 
-0.000000 0.011309 -0.000000 
-0.000000 0.011292 -0.000000 
-0.000000 0.011240 0.000000 
-0.000069 0.011258 -0.002758 
-0.000034 0.011309 -0.002765 
-0.000000 0.011326 -0.002767 
0.000034 0.011309 -0.002765 
0.000069 0.011258 -0.002758 
-0.000135 0.011311 -0.005611 
-0.000068 0.011361 -0.005620 
-0.000000 0.011378 -0.005621 
0.000068 0.011361 -0.005620 
0.000135 0.011311 -0.005611 
0.000128 0.012305 0.005791 
0.000064 0.012353 0.005800 
-0.000000 0.012369 0.005801 
-0.000065 0.012353 0.005801 
-0.000129 0.012305 0.005791 
0.000065 0.012255 0.002848 
0.000032 0.012303 0.002855 
-0.000000 0.012319 0.002857 
-0.000033 0.012303 0.002855 
-0.000066 0.012255 0.002848 
-0.000000 0.012238 -0.000000 
-0.000000 0.012287 -0.000000 
-0.000000 0.012303 -0.000000 
-0.000000 0.012287 -0.000000 
-0.000000 0.012238 -0.000000 
-0.000066 0.012255 -0.002848 
-0.000033 0.012303 -0.002856 
-0.000000 0.012319 -0.002857 
0.000032 0.012303 -0.002855 
0.000065 0.012255 -0.002848 
-0.000129 0.012305 -0.005791 
-0.000065 0.012353 -0.005801 
-0.000000 0.012369 -0.005802 
0.000064 0.012353 -0.005801 
0.000128 0.012305 -0.005791 
0.000121 0.013328 0.005962 
0.000061 0.013373 0.005971 
-0.000000 0.013389 0.005972 
-0.000061 0.013373 0.005971 
-0.000122 0.013328 0.005962 
0.000062 0.013281 0.002934 
0.000031 0.013326 0.002941 
-0.000000 0.013342 0.002943 
-0.000031 0.013326 0.002941 
-0.000062 0.013281 0.002934 
-0.000000 0.013265 -0.000000 
-0.000000 0.013311 -0.000000 
-0.000000 0.013326 -0.000000 
-0.000000 0.013311 -0.000000 
-0.000000 0.013265 -0.000000 
-0.000062 0.013281 -0.002934 
-0.000031 0.013326 -0.002941 
-0.000000 0.013342 -0.002943 
0.000031 0.013326 -0.002941 
0.000062 0.013281 -0.002934 
-0.000122 0.013328 -0.005962 
-0.000061 0.013373 -0.005971 
-0.000000 0.013389 -0.005972 
0.000061 0.013373 -0.005971 
0.000121 0.013328 -0.005962 
0.000114 0.014379 0.006123 
0.000057 0.014421 0.006132 
-0.000000 0.014436 0.006133 
-0.000058 0.014421 0.006132 
-0.000115 0.014379 0.006123 
0.000058 0.014334 0.003014 
0.000029 0.014377 0.003021 
-0.000000 0.014392 0.003023 
-0.000029 0.014377 0.003022 
-0.000059 0.014334 0.003014 
-0.000000 0.014319 -0.000000 
-0.000000 0.014363 -0.000000 
-0.000000 0.014377 -0.000000 
-0.000000 0.014363 -0.000000 
-0.000000 0.014319 -0.000000 
-0.000059 0.014334 -0.003014 
-0.000029 0.014377 -0.003022 
-0.000000 0.014392 -0.003023 
0.000029 0.014377 -0.003022 
0.000058 0.014334 -0.003014 
-0.000115 0.014379 -0.006123 
-0.000058 0.014421 -0.006133 
-0.000000 0.014436 -0.006133 
0.000057 0.014421 -0.006133 
0.000114 0.014379 -0.006123 
0.000108 0.015456 0.006275 
0.000054 0.015496 0.006284 
-0.000000 0.015509 0.006285 
-0.000054 0.015496 0.006284 
-0.000108 0.015456 0.006275 
0.000055 0.015414 0.003090 
0.000027 0.015454 0.003097 
-0.000000 0.015468 0.003099 
-0.000027 0.015454 0.003098 
-0.000055 0.015414 0.003090 
-0.000000 0.015400 -0.000000 
-0.000000 0.015441 -0.000000 
-0.000000 0.015454 -0.000000 
-0.000000 0.015441 -0.000000 
-0.000000 0.015400 -0.000000 
-0.000055 0.015414 -0.003090 
-0.000027 0.015454 -0.003098 
-0.000000 0.015468 -0.003099 
0.000027 0.015454 -0.003098 
0.000055 0.015414 -0.003090 
-0.000108 0.015456 -0.006275 
-0.000054 0.015496 -0.006284 
-0.000000 0.015509 -0.006285 
0.000054 0.015496 -0.006284 
0.000108 0.015456 -0.006275 
0.000101 0.016557 0.006417 
0.000051 0.016594 0.006427 
-0.000000 0.016607 0.006427 
-0.000051 0.016594 0.006427 
-0.000101 0.016557 0.006417 
0.000051 0.016518 0.003162 
0.000025 0.016556 0.003169 
-0.000000 0.016568 0.003171 
-0.000026 0.016556 0.003169 
-0.000051 0.016518 0.003162 
-0.000000 0.016504 -0.000000 
-0.000000 0.016543 -0.000000 
-0.000000 0.016555 -0.000000 
-0.000000 0.016543 -0.000000 
-0.000000 0.016505 -0.000000 
-0.000052 0.016518 -0.003162 
-0.000026 0.016556 -0.003169 
-0.000000 0.016568 -0.003171 
0.000025 0.016556 -0.003169 
0.000051 0.016518 -0.003162 
-0.000101 0.016557 -0.006418 
-0.000051 0.016594 -0.006427 
-0.000000 0.016607 -0.006428 
0.000050 0.016594 -0.006427 
0.000101 0.016557 -0.006418 
0.000094 0.017681 0.006550 
0.000047 0.017716 0.006560 
-0.000000 0.017728 0.006560 
-0.000047 0.017716 0.006560 
-0.000094 0.017681 0.006550 
0.000048 0.017644 0.003228 
0.000024 0.017680 0.003235 
-0.000000 0.017692 0.003237 
-0.000024 0.017680 0.003235 
-0.000048 0.017645 0.003228 
-0.000000 0.017632 -0.000000 
-0.000000 0.017668 -0.000000 
-0.000000 0.017680 -0.000000 
-0.000000 0.017668 -0.000000 
-0.000000 0.017632 -0.000000 
-0.000048 0.017644 -0.003228 
-0.000024 0.017680 -0.003236 
-0.000000 0.017692 -0.003237 
0.000024 0.017680 -0.003235 
0.000048 0.017645 -0.003228 
-0.000094 0.017681 -0.006551 
-0.000047 0.017716 -0.006560 
-0.000000 0.017728 -0.006561 
0.000047 0.017716 -0.006560 
0.000094 0.017681 -0.006551 
0.000087 0.018826 0.006674 
0.000044 0.018859 0.006683 
-0.000000 0.018870 0.006684 
-0.000044 0.018859 0.006683 
-0.000087 0.018826 0.006674 
0.000044 0.018793 0.003290 