<?xml version="1.0"?>
<VTKFile type="UnstructuredGrid"  version="0.1"  >
<UnstructuredGrid>
<Piece  NumberOfPoints="1025" NumberOfCells="640">
<Points>
<DataArray  type="Float32"  NumberOfComponents="3"  format="ascii">
0.000000 0.000000 0.000000 
0.750000 0.000000 0.000000 
1.500000 0.000000 0.000000 
2.250000 0.000000 0.000000 
3.000000 0.000000 0.000000 
0.000000 0.750000 0.000000 
0.750000 0.750000 0.000000 
1.500000 0.750000 0.000000 
2.250000 0.750000 0.000000 
3.000000 0.750000 0.000000 
0.000000 1.500000 0.000000 
0.750000 1.500000 0.000000 
1.500000 1.500000 0.000000 
2.250000 1.500000 0.000000 
3.000000 1.500000 0.000000 
0.000000 2.250000 0.000000 
0.750000 2.250000 0.000000 
1.500000 2.250000 0.000000 
2.250000 2.250000 0.000000 
3.000000 2.250000 0.000000 
0.000000 3.000000 0.000000 
0.750000 3.000000 0.000000 
1.500000 3.000000 0.000000 
2.250000 3.000000 0.000000 
3.000000 3.000000 0.000000 
0.000000 0.000000 0.250000 
0.750000 0.000000 0.250000 
1.500000 0.000000 0.250000 
2.250000 0.000000 0.250000 
3.000000 0.000000 0.250000 
0.000000 0.750000 0.250000 
0.750000 0.750000 0.250000 
1.500000 0.750000 0.250000 
2.250000 0.750000 0.250000 
3.000000 0.750000 0.250000 
0.000000 1.500000 0.250000 
0.750000 1.500000 0.250000 
1.500000 1.500000 0.250000 
2.250000 1.500000 0.250000 
3.000000 1.500000 0.250000 
0.000000 2.250000 0.250000 
0.750000 2.250000 0.250000 
1.500000 2.250000 0.250000 
2.250000 2.250000 0.250000 
3.000000 2.250000 0.250000 
0.000000 3.000000 0.250000 
0.750000 3.000000 0.250000 
1.500000 3.000000 0.250000 
2.250000 3.000000 0.250000 
3.000000 3.000000 0.250000 
0.000000 0.000000 0.500000 
0.750000 0.000000 0.500000 
1.500000 0.000000 0.500000 
2.250000 0.000000 0.500000 
3.000000 0.000000 0.500000 
0.000000 0.750000 0.500000 
0.750000 0.750000 0.500000 
1.500000 0.750000 0.500000 
2.250000 0.750000 0.500000 
3.000000 0.750000 0.500000 
0.000000 1.500000 0.500000 
0.750000 1.500000 0.500000 
1.500000 1.500000 0.500000 
2.250000 1.500000 0.500000 
3.000000 1.500000 0.500000 
0.000000 2.250000 0.500000 
0.750000 2.250000 0.500000 
1.500000 2.250000 0.500000 
2.250000 2.250000 0.500000 
3.000000 2.250000 0.500000 
0.000000 3.000000 0.500000 
0.750000 3.000000 0.500000 
1.500000 3.000000 0.500000 
2.250000 3.000000 0.500000 
3.000000 3.000000 0.500000 
0.000000 0.000000 0.750000 
0.750000 0.000000 0.750000 
1.500000 0.000000 0.750000 
2.250000 0.000000 0.750000 
3.000000 0.000000 0.750000 
0.000000 0.750000 0.750000 
0.750000 0.750000 0.750000 
1.500000 0.750000 0.750000 
2.250000 0.750000 0.750000 
3.000000 0.750000 0.750000 
0.000000 1.500000 0.750000 
0.750000 1.500000 0.750000 
1.500000 1.500000 0.750000 
2.250000 1.500000 0.750000 
3.000000 1.500000 0.750000 
0.000000 2.250000 0.750000 
0.750000 2.250000 0.750000 
1.500000 2.250000 0.750000 
2.250000 2.250000 0.750000 
3.000000 2.250000 0.750000 
0.000000 3.000000 0.750000 
0.750000 3.000000 0.750000 
1.500000 3.000000 0.750000 
2.250000 3.000000 0.750000 
3.000000 3.000000 0.750000 
0.000000 0.000000 1.000000 
0.750000 0.000000 1.000000 
1.500000 0.000000 1.000000 
2.250000 0.000000 1.000000 
3.000000 0.000000 1.000000 
0.000000 0.750000 1.000000 
0.750000 0.750000 1.000000 
1.500000 0.750000 1.000000 
2.250000 0.750000 1.000000 
3.000000 0.750000 1.000000 
0.000000 1.500000 1.000000 
0.750000 1.500000 1.000000 
1.500000 1.500000 1.000000 
2.250000 1.500000 1.000000 
3.000000 1.500000 1.000000 
0.000000 2.250000 1.000000 
0.750000 2.250000 1.000000 
1.500000 2.250000 1.000000 
2.250000 2.250000 1.000000 
3.000000 2.250000 1.000000 
0.000000 3.000000 1.000000 
0.750000 3.000000 1.000000 
1.500000 3.000000 1.000000 
2.250000 3.000000 1.000000 
3.000000 3.000000 1.000000 
0.000000 0.000000 1.250000 
0.750000 0.000000 1.250000 
1.500000 0.000000 1.250000 
2.250000 0.000000 1.250000 
3.000000 0.000000 1.250000 
0.000000 0.750000 1.250000 
0.750000 0.750000 1.250000 
1.500000 0.750000 1.250000 
2.250000 0.750000 1.250000 
3.000000 0.750000 1.250000 
0.000000 1.500000 1.250000 
0.750000 1.500000 1.250000 
1.500000 1.500000 1.250000 
2.250000 1.500000 1.250000 
3.000000 1.500000 1.250000 
0.000000 2.250000 1.250000 
0.750000 2.250000 1.250000 
1.500000 2.250000 1.250000 
2.250000 2.250000 1.250000 
3.000000 2.250000 1.250000 
0.000000 3.000000 1.250000 
0.750000 3.000000 1.250000 
1.500000 3.000000 1.250000 
2.250000 3.000000 1.250000 
3.000000 3.000000 1.250000 
0.000000 0.000000 1.500000 
0.750000 0.000000 1.500000 
1.500000 0.000000 1.500000 
2.250000 0.000000 1.500000 
3.000000 0.000000 1.500000 
0.000000 0.750000 1.500000 
0.750000 0.750000 1.500000 
1.500000 0.750000 1.500000 
2.250000 0.750000 1.500000 
3.000000 0.750000 1.500000 
0.000000 1.500000 1.500000 
0.750000 1.500000 1.500000 
1.500000 1.500000 1.500000 
2.250000 1.500000 1.500000 
3.000000 1.500000 1.500000 
0.000000 2.250000 1.500000 
0.750000 2.250000 1.500000 
1.500000 2.250000 1.500000 
2.250000 2.250000 1.500000 
3.000000 2.250000 1.500000 
0.000000 3.000000 1.500000 
0.750000 3.000000 1.500000 
1.500000 3.000000 1.500000 
2.250000 3.000000 1.500000 
3.000000 3.000000 1.500000 
0.000000 0.000000 1.750000 
0.750000 0.000000 1.750000 
1.500000 0.000000 1.750000 
2.250000 0.000000 1.750000 
3.000000 0.000000 1.750000 
0.000000 0.750000 1.750000 
0.750000 0.750000 1.750000 
1.500000 0.750000 1.750000 
2.250000 0.750000 1.750000 
3.000000 0.750000 1.750000 
0.000000 1.500000 1.750000 
0.750000 1.500000 1.750000 
1.500000 1.500000 1.750000 
2.250000 1.500000 1.750000 
3.000000 1.500000 1.750000 
0.000000 2.250000 1.750000 
0.750000 2.250000 1.750000 
1.500000 2.250000 1.750000 
2.250000 2.250000 1.750000 
3.000000 2.250000 1.750000 
0.000000 3.000000 1.750000 
0.750000 3.000000 1.750000 
1.500000 3.000000 1.750000 
2.250000 3.000000 1.750000 
3.000000 3.000000 1.750000 
0.000000 0.000000 2.000000 
0.750000 0.000000 2.000000 
1.500000 0.000000 2.000000 
2.250000 0.000000 2.000000 
3.000000 0.000000 2.000000 
0.000000 0.750000 2.000000 
0.750000 0.750000 2.000000 
1.500000 0.750000 2.000000 
2.250000 0.750000 2.000000 
3.000000 0.750000 2.000000 
0.000000 1.500000 2.000000 
0.750000 1.500000 2.000000 
1.500000 1.500000 2.000000 
2.250000 1.500000 2.000000 
3.000000 1.500000 2.000000 
0.000000 2.250000 2.000000 
0.750000 2.250000 2.000000 
1.500000 2.250000 2.000000 
2.250000 2.250000 2.000000 
3.000000 2.250000 2.000000 
0.000000 3.000000 2.000000 
0.750000 3.000000 2.000000 
1.500000 3.000000 2.000000 
2.250000 3.000000 2.000000 
3.000000 3.000000 2.000000 
0.000000 0.000000 2.250000 
0.750000 0.000000 2.250000 
1.500000 0.000000 2.250000 
2.250000 0.000000 2.250000 
3.000000 0.000000 2.250000 
0.000000 0.750000 2.250000 
0.750000 0.750000 2.250000 
1.500000 0.750000 2.250000 
2.250000 0.750000 2.250000 
3.000000 0.750000 2.250000 
0.000000 1.500000 2.250000 
0.750000 1.500000 2.250000 
1.500000 1.500000 2.250000 
2.250000 1.500000 2.250000 
3.000000 1.500000 2.250000 
0.000000 2.250000 2.250000 
0.750000 2.250000 2.250000 
1.500000 2.250000 2.250000 
2.250000 2.250000 2.250000 
3.000000 2.250000 2.250000 
0.000000 3.000000 2.250000 
0.750000 3.000000 2.250000 
1.500000 3.000000 2.250000 
2.250000 3.000000 2.250000 
3.000000 3.000000 2.250000 
0.000000 0.000000 2.500000 
0.750000 0.000000 2.500000 
1.500000 0.000000 2.500000 
2.250000 0.000000 2.500000 
3.000000 0.000000 2.500000 
0.000000 0.750000 2.500000 
0.750000 0.750000 2.500000 
1.500000 0.750000 2.500000 
2.250000 0.750000 2.500000 
3.000000 0.750000 2.500000 
0.000000 1.500000 2.500000 
0.750000 1.500000 2.500000 
1.500000 1.500000 2.500000 
2.250000 1.500000 2.500000 
3.000000 1.500000 2.500000 
0.000000 2.250000 2.500000 
0.750000 2.250000 2.500000 
1.500000 2.250000 2.500000 
2.250000 2.250000 2.500000 
3.000000 2.250000 2.500000 
0.000000 3.000000 2.500000 
0.750000 3.000000 2.500000 
1.500000 3.000000 2.500000 
2.250000 3.000000 2.500000 
3.000000 3.000000 2.500000 
0.000000 0.000000 2.750000 
0.750000 0.000000 2.750000 
1.500000 0.000000 2.750000 
2.250000 0.000000 2.750000 
3.000000 0.000000 2.750000 
0.000000 0.750000 2.750000 
0.750000 0.750000 2.750000 
1.500000 0.750000 2.750000 
2.250000 0.750000 2.750000 
3.000000 0.750000 2.750000 
0.000000 1.500000 2.750000 
0.750000 1.500000 2.750000 
1.500000 1.500000 2.750000 
2.250000 1.500000 2.750000 
3.000000 1.500000 2.750000 
0.000000 2.250000 2.750000 
0.750000 2.250000 2.750000 
1.500000 2.250000 2.750000 
2.250000 2.250000 2.750000 
3.000000 2.250000 2.750000 
0.000000 3.000000 2.750000 
0.750000 3.000000 2.750000 
1.500000 3.000000 2.750000 
2.250000 3.000000 2.750000 
3.000000 3.000000 2.750000 
0.000000 0.000000 3.000000 
0.750000 0.000000 3.000000 
1.500000 0.000000 3.000000 
2.250000 0.000000 3.000000 
3.000000 0.000000 3.000000 
0.000000 0.750000 3.000000 
0.750000 0.750000 3.000000 
1.500000 0.750000 3.000000 
2.250000 0.750000 3.000000 
3.000000 0.750000 3.000000 
0.000000 1.500000 3.000000 
0.750000 1.500000 3.000000 
1.500000 1.500000 3.000000 
2.250000 1.500000 3.000000 
3.000000 1.500000 3.000000 
0.000000 2.250000 3.000000 
0.750000 2.250000 3.000000 
1.500000 2.250000 3.000000 
2.250000 2.250000 3.000000 
3.000000 2.250000 3.000000 
0.000000 3.000000 3.000000 
0.750000 3.000000 3.000000 
1.500000 3.000000 3.000000 
2.250000 3.000000 3.000000 
3.000000 3.000000 3.000000 
0.000000 0.000000 3.250000 
0.750000 0.000000 3.250000 
1.500000 0.000000 3.250000 
2.250000 0.000000 3.250000 
3.000000 0.000000 3.250000 
0.000000 0.750000 3.250000 
0.750000 0.750000 3.250000 
1.500000 0.750000 3.250000 
2.250000 0.750000 3.250000 
3.000000 0.750000 3.250000 
0.000000 1.500000 3.250000 
0.750000 1.500000 3.250000 
1.500000 1.500000 3.250000 
2.250000 1.500000 3.250000 
3.000000 1.500000 3.250000 
0.000000 2.250000 3.250000 
0.750000 2.250000 3.250000 
1.500000 2.250000 3.250000 
2.250000 2.250000 3.250000 
3.000000 2.250000 3.250000 
0.000000 3.000000 3.250000 
0.750000 3.000000 3.250000 
1.500000 3.000000 3.250000 
2.250000 3.000000 3.250000 
[...]
<PointData  Scalars="u">
<DataArray  type="Float32"  Name="VectorField1"  NumberOfComponents="3" format="ascii">
0.000000 0.000000 0.000000 
0.000000 0.000000 0.000000 
0.000000 0.000000 0.000000 
0.000000 0.000000 0.000000 
0.000000 0.000000 0.000000 
0.000000 0.000000 0.000000 
0.000000 0.000000 0.000000 
0.000000 0.000000 0.000000 
0.000000 0.000000 0.000000 
0.000000 0.000000 0.000000 
0.000000 0.000000 0.000000 
0.000000 0.000000 0.000000 
0.000000 0.000000 0.000000 
0.000000 0.000000 0.000000 
0.000000 0.000000 0.000000 
0.000000 0.000000 0.000000 
0.000000 0.000000 0.000000 
0.000000 0.000000 0.000000 
0.000000 0.000000 0.000000 
0.000000 0.000000 0.000000 
0.000000 0.000000 0.000000 
0.000000 0.000000 0.000000 
0.000000 0.000000 0.000000 
0.000000 0.000000 0.000000 
0.000000 0.000000 0.000000 
0.000249 0.000264 0.000974 
0.000064 0.000319 0.000904 
-0.000000 0.000330 0.000927 
-0.000064 0.000319 0.000904 
-0.000249 0.000264 0.000974 
0.000125 0.000092 0.000428 
0.000033 0.000152 0.000374 
-0.000000 0.000159 0.000379 
-0.000033 0.000152 0.000374 
-0.000125 0.000092 0.000428 
-0.000000 0.000082 -0.000000 
0.000000 0.000145 -0.000000 
0.000000 0.000154 0.000000 
-0.000000 0.000145 0.000000 
-0.000000 0.000082 0.000000 
-0.000125 0.000092 -0.000428 
-0.000033 0.000152 -0.000374 
0.000000 0.000159 -0.000379 
0.000033 0.000152 -0.000374 
0.000125 0.000092 -0.000428 
-0.000249 0.000264 -0.000974 
-0.000064 0.000319 -0.000904 
0.000000 0.000330 -0.000927 
0.000064 0.000319 -0.000904 
0.000249 0.000264 -0.000974 
0.000373 0.000598 0.001862 
0.000135 0.000701 0.001786 
-0.000000 0.000724 0.001799 
-0.000135 0.000701 0.001786 
-0.000373 0.000598 0.001862 
0.000194 0.000385 0.000848 
0.000071 0.000487 0.000786 
-0.000000 0.000507 0.000784 
-0.000071 0.000487 0.000786 
-0.000194 0.000385 0.000848 
-0.000000 0.000339 -0.000000 
-0.000000 0.000444 -0.000000 
-0.000000 0.000464 0.000000 
-0.000000 0.000444 0.000000 
-0.000000 0.000339 0.000000 
-0.000194 0.000385 -0.000848 
-0.000071 0.000487 -0.000786 
0.000000 0.000507 -0.000784 
0.000071 0.000487 -0.000786 
0.000194 0.000385 -0.000848 
-0.000373 0.000598 -0.001862 
-0.000135 0.000701 -0.001786 
0.000000 0.000724 -0.001799 
0.000135 0.000701 -0.001786 
0.000373 0.000598 -0.001862 
0.000446 0.001059 0.002704 
0.000187 0.001195 0.002640 
-0.000000 0.001230 0.002643 
-0.000187 0.001195 0.002640 
-0.000446 0.001059 0.002704 
0.000234 0.000835 0.001259 
0.000099 0.000968 0.001206 
-0.000000 0.000999 0.001198 
-0.000099 0.000968 0.001206 
-0.000234 0.000835 0.001259 
-0.000000 0.000769 -0.000000 
-0.000000 0.000905 -0.000000 
-0.000000 0.000935 0.000000 
-0.000000 0.000905 0.000000 
-0.000000 0.000769 0.000000 
-0.000234 0.000835 -0.001259 
-0.000099 0.000968 -0.001206 
0.000000 0.000999 -0.001198 
0.000099 0.000968 -0.001206 
0.000234 0.000835 -0.001259 
-0.000446 0.001059 -0.002704 
-0.000187 0.001195 -0.002640 
0.000000 0.001230 -0.002643 
0.000187 0.001195 -0.002640 
0.000446 0.001059 -0.002704 
0.000488 0.001657 0.003515 
0.000222 0.001815 0.003469 
-0.000000 0.001859 0.003467 
-0.000222 0.001815 0.003469 
-0.000488 0.001657 0.003515 
0.000256 0.001431 0.001660 
0.000117 0.001586 0.001621 
-0.000000 0.001626 0.001611 
-0.000117 0.001586 0.001621 
-0.000256 0.001431 0.001660 
-0.000000 0.001358 -0.000000 
-0.000000 0.001515 -0.000000 
-0.000000 0.001554 0.000000 
-0.000000 0.001515 0.000000 
-0.000000 0.001358 0.000000 
-0.000256 0.001431 -0.001660 
-0.000117 0.001586 -0.001621 
-0.000000 0.001626 -0.001611 
0.000117 0.001586 -0.001621 
0.000256 0.001431 -0.001660 
-0.000488 0.001657 -0.003515 
-0.000222 0.001815 -0.003469 
0.000000 0.001859 -0.003467 
0.000222 0.001815 -0.003469 
0.000488 0.001657 -0.003515 
0.000510 0.002391 0.004304 
0.000242 0.002563 0.004275 
-0.000000 0.002614 0.004271 
-0.000242 0.002563 0.004275 
-0.000511 0.002391 0.004304 
0.000267 0.002169 0.002051 
0.000127 0.002338 0.002026 
-0.000000 0.002386 0.002016 
-0.000127 0.002338 0.002026 
-0.000267 0.002169 0.002051 
-0.000000 0.002094 -0.000000 
-0.000000 0.002266 -0.000000 
-0.000000 0.002311 0.000000 
-0.000000 0.002266 0.000000 
-0.000000 0.002094 0.000000 
-0.000267 0.002169 -0.002051 
-0.000127 0.002338 -0.002026 
-0.000000 0.002386 -0.002016 
0.000127 0.002338 -0.002026 
0.000267 0.002169 -0.002051 
-0.000511 0.002391 -0.004304 
-0.000242 0.002563 -0.004275 
0.000000 0.002614 -0.004270 
0.000242 0.002563 -0.004275 
0.000511 0.002391 -0.004304 
0.000520 0.003260 0.005073 
0.000252 0.003439 0.005058 
-0.000000 0.003495 0.005053 
-0.000252 0.003439 0.005058 
-0.000520 0.003260 0.005073 
0.000270 0.003043 0.002433 
0.000131 0.003221 0.002419 
-0.000000 0.003273 0.002412 
-0.000131 0.003221 0.002419 
-0.000270 0.003043 0.002433 
-0.000000 0.002969 -0.000000 
-0.000000 0.003149 -0.000000 
-0.000000 0.003200 0.000000 
-0.000000 0.003149 0.000000 
-0.000000 0.002969 0.000000 
-0.000270 0.003043 -0.002433 
-0.000131 0.003221 -0.002419 
-0.000000 0.003273 -0.002412 
0.000131 0.003221 -0.002419 
0.000270 0.003043 -0.002433 
-0.000520 0.003260 -0.005073 
-0.000252 0.003439 -0.005058 
0.000000 0.003495 -0.005053 
0.000252 0.003439 -0.005058 
0.000520 0.003260 -0.005073 
0.000520 0.004260 0.005822 
0.000256 0.004443 0.005818 
-0.000000 0.004501 0.005814 
-0.000256 0.004443 0.005818 
-0.000520 0.004260 0.005822 
0.000269 0.004048 0.002805 
0.000132 0.004231 0.002800 
-0.000000 0.004287 0.002795 
-0.000133 0.004231 0.002800 
-0.000269 0.004048 0.002805 
-0.000000 0.003976 -0.000000 
-0.000000 0.004161 -0.000000 
-0.000000 0.004215 0.000000 
-0.000000 0.004161 0.000000 
-0.000000 0.003976 0.000000 
-0.000269 0.004048 -0.002805 
-0.000133 0.004231 -0.002800 
-0.000000 0.004287 -0.002795 
0.000132 0.004231 -0.002800 
0.000269 0.004048 -0.002805 
-0.000520 0.004260 -0.005822 
-0.000256 0.004443 -0.005818 
-0.000000 0.004501 -0.005814 
0.000256 0.004443 -0.005818 
0.000520 0.004260 -0.005822 
0.000514 0.005386 0.006551 
0.000255 0.005570 0.006555 
-0.000000 0.005629 0.006552 
-0.000255 0.005570 0.006555 
-0.000514 0.005386 0.006551 
0.000265 0.005181 0.003167 
0.000131 0.005365 0.003170 
-0.000000 0.005422 0.003167 
-0.000131 0.005365 0.003170 
-0.000265 0.005181 0.003168 
-0.000000 0.005111 -0.000000 
-0.000000 0.005297 -0.000000 
-0.000000 0.005353 0.000000 
-0.000000 0.005297 0.000000 
-0.000000 0.005111 0.000000 
-0.000265 0.005181 -0.003168 
-0.000131 0.005365 -0.003170 
-0.000000 0.005422 -0.003167 
0.000131 0.005365 -0.003170 
0.000265 0.005181 -0.003167 
-0.000514 0.005386 -0.006551 
-0.000255 0.005570 -0.006555 
-0.000000 0.005629 -0.006552 
0.000255 0.005570 -0.006555 
0.000514 0.005386 -0.006551 
0.000504 0.006635 0.007260 
0.000251 0.006817 0.007269 
-0.000000 0.006877 0.007268 
-0.000251 0.006817 0.007270 
-0.000504 0.006635 0.007260 
0.000259 0.006436 0.003520 
0.000129 0.006619 0.003527 
-0.000000 0.006678 0.003527 
-0.000129 0.006619 0.003527 
-0.000259 0.006436 0.003520 
-0.000000 0.006369 -0.000000 
-0.000000 0.006554 -0.000000 
-0.000000 0.006611 0.000000 
-0.000000 0.006554 0.000000 
-0.000000 0.006369 0.000000 
-0.000259 0.006436 -0.003520 
-0.000129 0.006619 -0.003527 
-0.000000 0.006678 -0.003526 
0.000129 0.006619 -0.003527 
0.000259 0.006436 -0.003520 
-0.000504 0.006635 -0.007260 
-0.000251 0.006817 -0.007270 
-0.000000 0.006877 -0.007268 
0.000251 0.006817 -0.007269 
0.000504 0.006635 -0.007260 
0.000492 0.008003 0.007947 
0.000246 0.008182 0.007961 
-0.000000 0.008241 0.007961 
-0.000246 0.008182 0.007961 
-0.000492 0.008003 0.007947 
0.000252 0.007810 0.003863 
0.000125 0.007990 0.003873 
-0.000000 0.008049 0.003874 
-0.000126 0.007990 0.003873 
-0.000252 0.007810 0.003863 
-0.000000 0.007745 -0.000000 
-0.000000 0.007927 -0.000000 
-0.000000 0.007984 0.000000 
-0.000000 0.007927 0.000000 
-0.000000 0.007745 0.000000 
-0.000252 0.007810 -0.003863 
-0.000126 0.007990 -0.003873 
-0.000000 0.008049 -0.003874 
0.000125 0.007990 -0.003873 
0.000252 0.007810 -0.003863 
-0.000492 0.008003 -0.007947 
-0.000246 0.008182 -0.007961 
-0.000000 0.008241 -0.007961 
0.000246 0.008182 -0.007961 
0.000492 0.008003 -0.007947 
0.000478 0.009485 0.008613 
0.000239 0.009660 0.008630 
-0.000000 0.009718 0.008630 
-0.000239 0.009660 0.008630 
-0.000478 0.009485 0.008613 
0.000245 0.009298 0.004195 
0.000122 0.009475 0.004208 
-0.000000 0.009532 0.004210 
-0.000122 0.009475 0.004208 
-0.000245 0.009298 0.004195 
-0.000000 0.009235 -0.000000 
-0.000000 0.009414 -0.000000 
-0.000000 0.009470 0.000000 
-0.000000 0.009414 0.000000 
-0.000000 0.009235 0.000000 
-0.000245 0.009298 -0.004195 
-0.000122 0.009475 -0.004208 
-0.000000 0.009532 -0.004210 
0.000122 0.009475 -0.004208 
0.000245 0.009298 -0.004195 
-0.000478 0.009485 -0.008613 
-0.000239 0.009660 -0.008630 
-0.000000 0.009718 -0.008630 
0.000239 0.009660 -0.008630 
0.000478 0.009485 -0.008613 
0.000463 0.011077 0.009258 
0.000232 0.011247 0.009276 
-0.000000 0.011304 0.009277 
-0.000232 0.011247 0.009276 
-0.000463 0.011077 0.009258 
0.000236 0.010897 0.004516 
0.000118 0.011068 0.004531 
-0.000000 0.011125 0.004534 
-0.000118 0.011068 0.004531 
-0.000237 0.010897 0.004517 
-0.000000 0.010836 -0.000000 
-0.000000 0.011010 -0.000000 
-0.000000 0.011065 0.000000 
-0.000000 0.011009 0.000000 
-0.000000 0.010836 0.000000 
-0.000237 0.010897 -0.004517 
-0.000118 0.011068 -0.004531 
-0.000000 0.011125 -0.004534 
0.000118 0.011068 -0.004531 
0.000237 0.010897 -0.004516 
-0.000463 0.011077 -0.009258 
-0.000232 0.011247 -0.009276 
-0.000000 0.011304 -0.009277 
0.000232 0.011247 -0.009276 
0.000463 0.011077 -0.009257 
0.000447 0.012775 0.009880 
0.000224 0.012940 0.009900 
-0.000000 0.012996 0.009901 
-0.000224 0.012940 0.009900 
-0.000447 0.012775 0.009880 
0.000228 0.012601 0.004827 
0.000113 0.012768 0.004843 
-0.000000 0.012823 0.004846 
-0.000114 0.012768 0.004843 
-0.000228 0.012601 0.004827 
-0.000000 0.012543 -0.000000 
-0.000000 0.012711 -0.000000 
-0.000000 0.012765 0.000000 
-0.000000 0.012711 0.000000 
-0.000000 0.012543 0.000000 
-0.000228 0.012601 -0.004827 
-0.000114 0.012768 -0.004843 
-0.000000 0.012823 -0.004846 
0.000113 0.012768 -0.004843 
0.000228 0.012601 -0.004827 
-0.000447 0.012775 -0.009880 
-0.000224 0.012940 -0.009900 
-0.000000 0.012996 -0.009901 
0.000224 0.012940 -0.009900 
0.000447 0.012775 -0.009880 
0.000431 0.014576 0.010480 
0.000216 0.014735 0.010501 
-0.000000 0.014789 0.010502 
-0.000217 0.014735 0.010501 
-0.000431 0.014576 0.010480 
0.000220 0.014408 0.005127 
0.000109 0.014569 0.005143 
-0.000000 0.014623 0.005147 
-0.000109 0.014569 0.005143 
-0.000220 0.014408 0.005127 
-0.000000 0.014352 -0.000000 
-0.000000 0.014515 -0.000000 
-0.000000 0.014567 0.000000 
-0.000000 0.014515 0.000000 
-0.000000 0.014352 0.000000 
-0.000220 0.014408 -0.005127 
-0.000109 0.014569 -0.005143 
-0.000000 0.014623 -0.005147 
0.000109 0.014569 -0.005143 
0.000220 0.014408 -0.005127 
-0.000431 0.014576 -0.010480 
-0.000216 0.014735 -0.010501 
-0.000000 0.014789 -0.010502 
0.000216 0.014735 -0.010501 
0.000431 0.014576 -0.010480 
0.000414 0.016475 0.011058 
0.000208 0.016628 0.011079 
-0.000000 0.016680 0.011081 
-0.000208 0.016628 0.011079 
-0.000415 0.016475 0.011058 
0.000211 0.016314 0.005416 
0.000105 0.016469 0.005432 
-0.000000 0.016521 0.005436 
-0.000105 0.016469 0.005432 
-0.000212 0.016314 0.005416 
-0.000000 0.016260 -0.000000 
-0.000000 0.016416 -0.000000 
-0.000000 0.016467 0.000000 
-0.000000 0.016416 0.000000 
-0.000000 0.016260 0.000000 
-0.000212 0.016314 -0.005416 
-0.000105 0.016469 -0.005432 
-0.000000 0.016521 -0.005436 
0.000105 0.016469 -0.005432 
0.000211 0.016314 -0.005416 
-0.000415 0.016475 -0.011058 
-0.000208 0.016628 -0.011079 
-0.000000 0.016680 -0.011081 
0.000208 0.016628 -0.011079 
0.000415 0.016475 -0.011058 
0.000398 0.018468 0.011613 
0.000200 0.018616 0.011635 
-0.000000 0.018666 0.011637 
-0.000200 0.018616 0.011635 
-0.000398 0.018468 0.011613 
0.000203 0.018314 0.005693 
0.000101 0.018463 0.005710 
-0.000000 0.018513 0.005714 
-0.000101 0.018463 0.005710 
-0.000203 0.018314 0.005693 
-0.000000 0.018262 -0.000000 
-0.000000 0.018413 -0.000000 
-0.000000 0.018462 0.000000 
-0.000000 0.018413 0.000000 
-0.000000 0.018262 0.000000 
-0.000203 0.018314 -0.005693 
-0.000101 0.018463 -0.005710 
-0.000000 0.018513 -0.005714 
0.000101 0.018463 -0.005710 
0.000203 0.018314 -0.005693 
-0.000398 0.018468 -0.011613 
-0.000200 0.018616 -0.011635 
-0.000000 0.018666 -0.011637 
0.000200 0.018616 -0.011635 
0.000398 0.018468 -0.011613 
0.000382 0.020553 0.012146 
0.000192 0.020695 0.012168 
-0.000000 0.020743 0.012170 
-0.000192 0.020695 0.012168 
-0.000382 0.020553 0.012146 
0.000194 0.020405 0.005959 
0.000096 0.020548 0.005977 
-0.000000 0.020596 0.005981 
-0.000097 0.020548 0.005977 
-0.000195 0.020405 0.005960 
-0.000000 0.020355 -0.000000 
-0.000000 0.020500 -0.000000 
-0.000000 0.020547 0.000000 
-0.000000 0.020500 0.000000 
-0.000000 0.020355 0.000000 
-0.000195 0.020405 -0.005960 
-0.000097 0.020548 -0.005977 
-0.000000 0.020596 -0.005981 
0.000097 0.020548 -0.005977 
0.000194 0.020405 -0.005959 
-0.000382 0.020553 -0.012146 
-0.000192 0.020695 -0.012168 
-0.000000 0.020743 -0.012170 
0.000192 0.020695 -0.012168 
0.000382 0.020553 -0.012146 
0.000365 0.022725 0.012656 
0.000183 0.022860 0.012678 
-0.000000 0.022906 0.012681 
-0.000184 0.022860 0.012679 
-0.000365 0.022724 0.012657 
0.000186 0.022583 0.006215 
0.000092 0.022720 0.006232 
-0.000000 0.022766 0.006236 
-0.000093 0.022720 0.006232 
-0.000186 0.022583 0.006215 
-0.000000 0.022535 -0.000000 
-0.000000 0.022674 -0.000000 
-0.000000 0.022719 0.000000 
-0.000000 0.022673 0.000000 
-0.000000 0.022535 0.000000 
-0.000186 0.022583 -0.006215 
-0.000093 0.022720 -0.006232 
-0.000000 0.022766 -0.006236 
0.000092 0.022720 -0.006232 
0.000186 0.022583 -0.006214 
-0.000365 0.022725 -0.012657 
-0.000184 0.022860 -0.012678 
-0.000000 0.022906 -0.012680 
0.000183 0.022860 -0.012678 
0.000365 0.022724 -0.012656 
0.000348 0.024979 0.013144 
0.000175 0.025109 0.013166 
-0.000000 0.025153 0.013168 
-0.000175 0.025109 0.013166 
-0.000349 0.024979 0.013145 
0.000177 0.024844 0.006458 
0.000088 0.024975 0.006476 
-0.000000 0.025019 0.006480 
-0.000088 0.024975 0.006476 
-0.000178 0.024844 0.006459 
-0.000000 0.024799 -0.000000 
-0.000000 0.024931 -0.000000 
-0.000000 0.024974 0.000000 
-0.000000 0.024931 0.000000 
-0.000000 0.024798 0.000000 
-0.000178 0.024844 -0.006459 
-0.000088 0.024975 -0.006476 
-0.000000 0.025019 -0.006480 
0.000088 0.024975 -0.006476 
0.000178 0.024844 -0.006458 
-0.000349 0.024979 -0.013144 
-0.000175 0.025109 -0.013166 
-0.000000 0.025153 -0.013168 
0.000175 0.025109 -0.013166 
0.000349 0.024979 -0.013144 
0.000332 0.027314 0.013610 
0.000167 0.027437 0.013632 
-0.000000 0.027479 0.013634 
-0.000167 0.027437 0.013632 
-0.000332 0.027314 0.013610 
0.000169 0.027185 0.006691 
0.000084 0.027310 0.006708 
-0.000000 0.027351 0.006713 
-0.000084 0.027310 0.006709 
-0.000169 0.027185 0.006691 
-0.000000 0.027142 -0.000000 
-0.000000 0.027267 -0.000000 
-0.000000 0.027309 0.000000 
-0.000000 0.027267 0.000000 
-0.000000 0.027141 0.000000 
-0.000169 0.027185 -0.006691 
-0.000084 0.027310 -0.006709 
-0.000000 0.027351 -0.006713 
0.000084 0.027310 -0.006708 
0.000169 0.027185 -0.006691 
-0.000332 0.027314 -0.013610 
-0.000167 0.027437 -0.013632 
-0.000000 0.027479 -0.013634 
0.000167 0.027437 -0.013631 
0.000332 0.027314 -0.013609 
0.000315 0.029724 0.014052 
0.000158 0.029841 0.014074 
-0.000000 0.029881 0.014077 
-0.000159 0.029841 0.014074 
-0.000316 0.029724 0.014052 
0.000161 0.029601 0.006912 
0.000080 0.029720 0.006930 
-0.000000 0.029759 0.006934 
-0.000080 0.029720 0.006930 
-0.000161 0.029601 0.006913 
-0.000000 0.029560 -0.000000 
-0.000000 0.029680 -0.000000 
-0.000000 0.029719 0.000000 
-0.000000 0.029680 0.000000 
-0.000000 0.029560 0.000000 
-0.000161 0.029601 -0.006912 
-0.000080 0.029720 -0.006930 
-0.000000 0.029759 -0.006934 
0.000080 0.029720 -0.006930 
0.000161 0.029601 -0.006912 
-0.000316 0.029724 -0.014052 
-0.000159 0.029841 -0.014074 
-0.000000 0.029881 -0.014076 
0.000158 0.029841 -0.014074 
0.000315 0.029724 -0.014052 
0.000299 0.032206 0.014472 
0.000150 0.032317 0.014494 
-0.000000 0.032355 0.014497 
-0.000151 0.032317 0.014495 
-0.000299 0.032206 0.014473 
0.000152 0.032090 0.007122 
0.000075 0.032202 0.007140 
-0.000000 0.032240 0.007144 
-0.000076 0.032202 0.007140 
-0.000153 0.032090 0.007123 
-0.000000 0.032051 -0.000000 
-0.000000 0.032164 -0.000000 
-0.000000 0.032201 0.000000 
-0.000000 0.032164 0.000000 
-0.000000 0.032051 0.000000 
-0.000153 0.032090 -0.007122 
-0.000076 0.032202 -0.007140 
-0.000000 0.032239 -0.007144 
0.000075 0.032202 -0.007140 
0.000152 0.032090 -0.007122 
-0.000299 0.032206 -0.014472 
-0.000150 0.032317 -0.014494 
-0.000000 0.032355 -0.014497 
0.000150 0.032317 -0.014494 
0.000299 0.032206 -0.014472 
0.000282 0.034756 0.014870 
0.000142 0.034861 0.014892 
-0.000000 0.034897 0.014894 
-0.000142 0.034861 0.014892 
-0.000283 0.034756 0.014870 
0.000144 0.034646 0.007321 
0.000071 0.034752 0.007338 
-0.000000 0.034788 0.007343 
-0.000072 0.034752 0.007339 
-0.000144 0.034646 0.007321 
-0.000000 0.034609 -0.000000 
-0.000000 0.034716 -0.000000 
-0.000000 0.034752 0.000000 
-0.000000 0.034716 0.000000 
-0.000000 0.034609 0.000000 
-0.000144 0.034646 -0.007321 
-0.000072 0.034752 -0.007339 
-0.000000 0.034788 -0.007343 
0.000071 0.034752 -0.007338 
0.000144 0.034646 -0.007321 
-0.000283 0.034756 -0.014870 
-0.000142 0.034861 -0.014892 
-0.000000 0.034896 -0.014894 
0.000142 0.034861 -0.014892 
0.000282 0.034756 -0.014870 
0.000266 0.037370 0.015245 
0.000133 0.037469 0.015267 
-0.000000 0.037503 0.015269 
-0.000134 0.037469 0.015267 
-0.000266 0.037370 0.015245 
0.000135 0.037267 0.007508 
0.000067 0.037367 0.007526 
-0.000000 0.037400 0.007530 
-0.000068 0.037367 0.007526 
-0.000136 0.037267 0.007509 
-0.000000 0.037232 -0.000000 
-0.000000 0.037333 -0.000000 
-0.000000 0.037366 0.000000 
-0.000000 0.037333 0.000000 
-0.000000 0.037232 0.000000 
-0.000136 0.037267 -0.007509 
-0.000068 0.037367 -0.007526 
-0.000000 0.037400 -0.007530 
0.000067 0.037367 -0.007526 
0.000135 0.037267 -0.007508 
-0.000266 0.037370 -0.015245 
-0.000134 0.037469 -0.015267 
-0.000000 0.037503 -0.015269 
0.000133 0.037469 -0.015267 
0.000266 0.037370 -0.015244 
0.000249 0.040045 0.015597 
0.000125 0.040138 0.015619 
-0.000000 0.040170 0.015621 
-0.000126 0.040138 0.015619 
-0.000250 0.040045 0.015597 
0.000127 0.039949 0.007684 
0.000063 0.040042 0.007702 
-0.000000 0.040074 0.007706 
-0.000063 0.040042 0.007702 
-0.000127 0.039949 0.007685 
-0.000000 0.039916 -0.000000 
-0.000000 0.040011 -0.000000 
-0.000000 0.040042 0.000000 
-0.000000 0.040011 0.000000 
-0.000000 0.039916 0.000000 
-0.000127 0.039949 -0.007685 
-0.000063 0.040042 -0.007702 
-0.000000 0.040074 -0.007706 
0.000063 0.040042 -0.007702 
0.000127 0.039949 -0.007684 
-0.000250 0.040046 -0.015597 
-0.000126 0.040138 -0.015619 
-0.000000 0.040170 -0.015621 
0.000125 0.040138 -0.015619 
0.000249 0.040045 -0.015597 
0.000232 0.042777 0.015926 
0.000116 0.042864 0.015948 
-0.000000 0.042893 0.015951 
-0.000117 0.042864 0.015949 
-0.000233 0.042777 0.015927 
0.000118 0.042687 0.007849 
0.000058 0.042775 0.007867 
-0.000000 0.042804 0.007871 
-0.000059 0.042775 0.007867 
-0.000119 0.042687 0.007850 
-0.000000 0.042657 -0.000000 
-0.000000 0.042745 -0.000000 
-0.000000 0.042774 0.000000 
-0.000000 0.042745 0.000000 
-0.000000 0.042657 0.000000 
-0.000119 0.042687 -0.007849 
-0.000059 0.042775 -0.007867 
-0.000000 0.042804 -0.007871 
0.000059 0.042775 -0.007867 
0.000118 0.042687 -0.007849 
-0.000233 0.042778 -0.015927 
-0.000117 0.042864 -0.015949 
-0.000000 0.042893 -0.015951 
0.000117 0.042864 -0.015948 
0.000233 0.042777 -0.015926 
0.000216 0.045563 0.016233 
0.000108 0.045643 0.016255 
-0.000000 0.045670 0.016258 
-0.000109 0.045643 0.016256 
-0.000217 0.045562 0.016234 
0.000110 0.045479 0.008003 
0.000054 0.045560 0.008020 
-0.000000 0.045587 0.008025 