<?xml version="1.0"?>
<VTKFile type="UnstructuredGrid"  version="0.1"  >
<UnstructuredGrid>
<Piece  NumberOfPoints="1025" NumberOfCells="640">
<Points>
<DataArray  type="Float32"  NumberOfComponents="3"  format="ascii">
0.000000 0.000000 0.000000 
0.750000 0.000000 0.000000 
1.500000 0.000000 0.000000 
2.250000 0.000000 0.000000 
3.000000 0.000000 0.000000 
0.000000 0.750000 0.000000 
0.750000 0.750000 0.000000 
1.500000 0.750000 0.000000 
2.250000 0.750000 0.000000 
3.000000 0.750000 0.000000 
0.000000 1.500000 0.000000 
0.750000 1.500000 0.000000 
1.500000 1.500000 0.000000 
2.250000 1.500000 0.000000 
3.000000 1.500000 0.000000 
0.000000 2.250000 0.000000 
0.750000 2.250000 0.000000 
1.500000 2.250000 0.000000 
2.250000 2.250000 0.000000 
3.000000 2.250000 0.000000 
0.000000 3.000000 0.000000 
0.750000 3.000000 0.000000 
1.500000 3.000000 0.000000 
2.250000 3.000000 0.000000 
3.000000 3.000000 0.000000 
0.000000 0.000000 0.250000 
0.750000 0.000000 0.250000 
1.500000 0.000000 0.250000 
2.250000 0.000000 0.250000 
3.000000 0.000000 0.250000 
0.000000 0.750000 0.250000 
0.750000 0.750000 0.250000 
1.500000 0.750000 0.250000 
2.250000 0.750000 0.250000 
3.000000 0.750000 0.250000 
0.000000 1.500000 0.250000 
0.750000 1.500000 0.250000 
1.500000 1.500000 0.250000 
2.250000 1.500000 0.250000 
3.000000 1.500000 0.250000 
0.000000 2.250000 0.250000 
0.750000 2.250000 0.250000 
1.500000 2.250000 0.250000 
2.250000 2.250000 0.250000 
3.000000 2.250000 0.250000 
0.000000 3.000000 0.250000 
0.750000 3.000000 0.250000 
1.500000 3.000000 0.250000 
2.250000 3.000000 0.250000 
3.000000 3.000000 0.250000 
0.000000 0.000000 0.500000 
0.750000 0.000000 0.500000 
1.500000 0.000000 0.500000 
2.250000 0.000000 0.500000 
3.000000 0.000000 0.500000 
0.000000 0.750000 0.500000 
0.750000 0.750000 0.500000 
1.500000 0.750000 0.500000 
2.250000 0.750000 0.500000 
3.000000 0.750000 0.500000 
0.000000 1.500000 0.500000 
0.750000 1.500000 0.500000 
1.500000 1.500000 0.500000 
2.250000 1.500000 0.500000 
3.000000 1.500000 0.500000 
0.000000 2.250000 0.500000 
0.750000 2.250000 0.500000 
1.500000 2.250000 0.500000 
2.250000 2.250000 0.500000 
3.000000 2.250000 0.500000 
0.000000 3.000000 0.500000 
0.750000 3.000000 0.500000 
1.500000 3.000000 0.500000 
2.250000 3.000000 0.500000 
3.000000 3.000000 0.500000 
0.000000 0.000000 0.750000 
0.750000 0.000000 0.750000 
1.500000 0.000000 0.750000 
2.250000 0.000000 0.750000 
3.000000 0.000000 0.750000 
0.000000 0.750000 0.750000 
0.750000 0.750000 0.750000 
1.500000 0.750000 0.750000 
2.250000 0.750000 0.750000 
3.000000 0.750000 0.750000 
0.000000 1.500000 0.750000 
0.750000 1.500000 0.750000 
1.500000 1.500000 0.750000 
2.250000 1.500000 0.750000 
3.000000 1.500000 0.750000 
0.000000 2.250000 0.750000 
0.750000 2.250000 0.750000 
1.500000 2.250000 0.750000 
2.250000 2.250000 0.750000 
3.000000 2.250000 0.750000 
0.000000 3.000000 0.750000 
0.750000 3.000000 0.750000 
1.500000 3.000000 0.750000 
2.250000 3.000000 0.750000 
3.000000 3.000000 0.750000 
0.000000 0.000000 1.000000 
0.750000 0.000000 1.000000 
1.500000 0.000000 1.000000 
2.250000 0.000000 1.000000 
3.000000 0.000000 1.000000 
0.000000 0.750000 1.000000 
0.750000 0.750000 1.000000 
1.500000 0.750000 1.000000 
2.250000 0.750000 1.000000 
3.000000 0.750000 1.000000 
0.000000 1.500000 1.000000 
0.750000 1.500000 1.000000 
1.500000 1.500000 1.000000 
2.250000 1.500000 1.000000 
3.000000 1.500000 1.000000 
0.000000 2.250000 1.000000 
0.750000 2.250000 1.000000 
1.500000 2.250000 1.000000 
2.250000 2.250000 1.000000 
3.000000 2.250000 1.000000 
0.000000 3.000000 1.000000 
0.750000 3.000000 1.000000 
1.500000 3.000000 1.000000 
2.250000 3.000000 1.000000 
3.000000 3.000000 1.000000 
0.000000 0.000000 1.250000 
0.750000 0.000000 1.250000 
1.500000 0.000000 1.250000 
2.250000 0.000000 1.250000 
3.000000 0.000000 1.250000 
0.000000 0.750000 1.250000 
0.750000 0.750000 1.250000 
1.500000 0.750000 1.250000 
2.250000 0.750000 1.250000 
3.000000 0.750000 1.250000 
0.000000 1.500000 1.250000 
0.750000 1.500000 1.250000 
1.500000 1.500000 1.250000 
2.250000 1.500000 1.250000 
3.000000 1.500000 1.250000 
0.000000 2.250000 1.250000 
0.750000 2.250000 1.250000 
1.500000 2.250000 1.250000 
2.250000 2.250000 1.250000 
3.000000 2.250000 1.250000 
0.000000 3.000000 1.250000 
0.750000 3.000000 1.250000 
1.500000 3.000000 1.250000 
2.250000 3.000000 1.250000 
3.000000 3.000000 1.250000 
0.000000 0.000000 1.500000 
0.750000 0.000000 1.500000 
1.500000 0.000000 1.500000 
2.250000 0.000000 1.500000 
3.000000 0.000000 1.500000 
0.000000 0.750000 1.500000 
0.750000 0.750000 1.500000 
1.500000 0.750000 1.500000 
2.250000 0.750000 1.500000 
3.000000 0.750000 1.500000 
0.000000 1.500000 1.500000 
0.750000 1.500000 1.500000 
1.500000 1.500000 1.500000 
2.250000 1.500000 1.500000 
3.000000 1.500000 1.500000 
0.000000 2.250000 1.500000 
0.750000 2.250000 1.500000 
1.500000 2.250000 1.500000 
2.250000 2.250000 1.500000 
3.000000 2.250000 1.500000 
0.000000 3.000000 1.500000 
0.750000 3.000000 1.500000 
1.500000 3.000000 1.500000 
2.250000 3.000000 1.500000 
3.000000 3.000000 1.500000 
0.000000 0.000000 1.750000 
0.750000 0.000000 1.750000 
1.500000 0.000000 1.750000 
2.250000 0.000000 1.750000 
3.000000 0.000000 1.750000 
0.000000 0.750000 1.750000 
0.750000 0.750000 1.750000 
1.500000 0.750000 1.750000 
2.250000 0.750000 1.750000 
3.000000 0.750000 1.750000 
0.000000 1.500000 1.750000 
0.750000 1.500000 1.750000 
1.500000 1.500000 1.750000 
2.250000 1.500000 1.750000 
3.000000 1.500000 1.750000 
0.000000 2.250000 1.750000 
0.750000 2.250000 1.750000 
1.500000 2.250000 1.750000 
2.250000 2.250000 1.750000 
3.000000 2.250000 1.750000 
0.000000 3.000000 1.750000 
0.750000 3.000000 1.750000 
1.500000 3.000000 1.750000 
2.250000 3.000000 1.750000 
3.000000 3.000000 1.750000 
0.000000 0.000000 2.000000 
0.750000 0.000000 2.000000 
1.500000 0.000000 2.000000 
2.250000 0.000000 2.000000 
3.000000 0.000000 2.000000 
0.000000 0.750000 2.000000 
0.750000 0.750000 2.000000 
1.500000 0.750000 2.000000 
2.250000 0.750000 2.000000 
3.000000 0.750000 2.000000 
0.000000 1.500000 2.000000 
0.750000 1.500000 2.000000 
1.500000 1.500000 2.000000 
2.250000 1.500000 2.000000 
3.000000 1.500000 2.000000 
0.000000 2.250000 2.000000 
0.750000 2.250000 2.000000 
1.500000 2.250000 2.000000 
2.250000 2.250000 2.000000 
3.000000 2.250000 2.000000 
0.000000 3.000000 2.000000 
0.750000 3.000000 2.000000 
1.500000 3.000000 2.000000 
2.250000 3.000000 2.000000 
3.000000 3.000000 2.000000 
0.000000 0.000000 2.250000 
0.750000 0.000000 2.250000 
1.500000 0.000000 2.250000 
2.250000 0.000000 2.250000 
3.000000 0.000000 2.250000 
0.000000 0.750000 2.250000 
0.750000 0.750000 2.250000 
1.500000 0.750000 2.250000 
2.250000 0.750000 2.250000 
3.000000 0.750000 2.250000 
0.000000 1.500000 2.250000 
0.750000 1.500000 2.250000 
1.500000 1.500000 2.250000 
2.250000 1.500000 2.250000 
3.000000 1.500000 2.250000 
0.000000 2.250000 2.250000 
0.750000 2.250000 2.250000 
1.500000 2.250000 2.250000 
2.250000 2.250000 2.250000 
3.000000 2.250000 2.250000 
0.000000 3.000000 2.250000 
0.750000 3.000000 2.250000 
1.500000 3.000000 2.250000 
2.250000 3.000000 2.250000 
3.000000 3.000000 2.250000 
0.000000 0.000000 2.500000 
0.750000 0.000000 2.500000 
1.500000 0.000000 2.500000 
2.250000 0.000000 2.500000 
3.000000 0.000000 2.500000 
0.000000 0.750000 2.500000 
0.750000 0.750000 2.500000 
1.500000 0.750000 2.500000 
2.250000 0.750000 2.500000 
3.000000 0.750000 2.500000 
0.000000 1.500000 2.500000 
0.750000 1.500000 2.500000 
1.500000 1.500000 2.500000 
2.250000 1.500000 2.500000 
3.000000 1.500000 2.500000 
0.000000 2.250000 2.500000 
0.750000 2.250000 2.500000 
1.500000 2.250000 2.500000 
2.250000 2.250000 2.500000 
3.000000 2.250000 2.500000 
0.000000 3.000000 2.500000 
0.750000 3.000000 2.500000 
1.500000 3.000000 2.500000 
2.250000 3.000000 2.500000 
3.000000 3.000000 2.500000 
0.000000 0.000000 2.750000 
0.750000 0.000000 2.750000 
1.500000 0.000000 2.750000 
2.250000 0.000000 2.750000 
3.000000 0.000000 2.750000 
0.000000 0.750000 2.750000 
0.750000 0.750000 2.750000 
1.500000 0.750000 2.750000 
2.250000 0.750000 2.750000 
3.000000 0.750000 2.750000 
0.000000 1.500000 2.750000 
0.750000 1.500000 2.750000 
1.500000 1.500000 2.750000 
2.250000 1.500000 2.750000 
3.000000 1.500000 2.750000 
0.000000 2.250000 2.750000 
0.750000 2.250000 2.750000 
1.500000 2.250000 2.750000 
2.250000 2.250000 2.750000 
3.000000 2.250000 2.750000 
0.000000 3.000000 2.750000 
0.750000 3.000000 2.750000 
1.500000 3.000000 2.750000 
2.250000 3.000000 2.750000 
3.000000 3.000000 2.750000 
0.000000 0.000000 3.000000 
0.750000 0.000000 3.000000 
1.500000 0.000000 3.000000 
2.250000 0.000000 3.000000 
3.000000 0.000000 3.000000 
0.000000 0.750000 3.000000 
0.750000 0.750000 3.000000 
1.500000 0.750000 3.000000 
2.250000 0.750000 3.000000 
3.000000 0.750000 3.000000 
0.000000 1.500000 3.000000 
0.750000 1.500000 3.000000 
1.500000 1.500000 3.000000 
2.250000 1.500000 3.000000 
3.000000 1.500000 3.000000 
0.000000 2.250000 3.000000 
0.750000 2.250000 3.000000 
1.500000 2.250000 3.000000 
2.250000 2.250000 3.000000 
3.000000 2.250000 3.000000 
0.000000 3.000000 3.000000 
0.750000 3.000000 3.000000 
1.500000 3.000000 3.000000 
2.250000 3.000000 3.000000 
3.000000 3.000000 3.000000 
0.000000 0.000000 3.250000 
0.750000 0.000000 3.250000 
1.500000 0.000000 3.250000 
2.250000 0.000000 3.250000 
3.000000 0.000000 3.250000 
0.000000 0.750000 3.250000 
0.750000 0.750000 3.250000 
1.500000 0.750000 3.250000 
2.250000 0.750000 3.250000 
3.000000 0.750000 3.250000 
0.000000 1.500000 3.250000 
0.750000 1.500000 3.250000 
1.500000 1.500000 3.250000 
2.250000 1.500000 3.250000 
3.000000 1.500000 3.250000 
0.000000 2.250000 3.250000 
0.750000 2.250000 3.250000 
1.500000 2.250000 3.250000 
2.250000 2.250000 3.250000 
3.000000 2.250000 3.250000 
0.000000 3.000000 3.250000 
0.750000 3.000000 3.250000 
1.500000 3.000000 3.250000 
2.250000 3.000000 3.250000 
[...]
<PointData  Scalars="u">
<DataArray  type="Float32"  Name="VectorField1"  NumberOfComponents="3" format="ascii">
0.000000 0.000000 0.000000 
0.000000 0.000000 0.000000 
0.000000 0.000000 0.000000 
0.000000 0.000000 0.000000 
0.000000 0.000000 0.000000 
0.000000 0.000000 0.000000 
0.000000 0.000000 0.000000 
0.000000 0.000000 0.000000 
0.000000 0.000000 0.000000 
0.000000 0.000000 0.000000 
0.000000 0.000000 0.000000 
0.000000 0.000000 0.000000 
0.000000 0.000000 0.000000 
0.000000 0.000000 0.000000 
0.000000 0.000000 0.000000 
0.000000 0.000000 0.000000 
0.000000 0.000000 0.000000 
0.000000 0.000000 0.000000 
0.000000 0.000000 0.000000 
0.000000 0.000000 0.000000 
0.000000 0.000000 0.000000 
0.000000 0.000000 0.000000 
0.000000 0.000000 0.000000 
0.000000 0.000000 0.000000 
0.000000 0.000000 0.000000 
0.000172 0.000182 0.000674 
0.000044 0.000220 0.000626 
0.000000 0.000228 0.000641 
-0.000044 0.000220 0.000626 
-0.000172 0.000182 0.000673 
0.000086 0.000063 0.000296 
0.000023 0.000104 0.000259 
0.000000 0.000110 0.000263 
-0.000023 0.000104 0.000259 
-0.000086 0.000063 0.000296 
0.000000 0.000056 0.000000 
0.000000 0.000100 0.000000 
0.000000 0.000106 -0.000000 
0.000000 0.000100 -0.000000 
0.000000 0.000056 -0.000000 
-0.000086 0.000063 -0.000296 
-0.000023 0.000104 -0.000259 
0.000000 0.000110 -0.000263 
0.000023 0.000104 -0.000259 
0.000086 0.000063 -0.000296 
-0.000172 0.000182 -0.000673 
-0.000044 0.000220 -0.000626 
-0.000000 0.000228 -0.000641 
0.000044 0.000220 -0.000626 
0.000172 0.000182 -0.000674 
0.000258 0.000412 0.001288 
0.000094 0.000484 0.001236 
0.000000 0.000500 0.001245 
-0.000094 0.000484 0.001236 
-0.000258 0.000412 0.001288 
0.000134 0.000265 0.000588 
0.000049 0.000336 0.000544 
0.000000 0.000349 0.000543 
-0.000049 0.000336 0.000544 
-0.000134 0.000265 0.000588 
0.000000 0.000233 0.000000 
0.000000 0.000306 0.000000 
0.000000 0.000319 -0.000000 
0.000000 0.000306 -0.000000 
0.000000 0.000233 -0.000000 
-0.000134 0.000265 -0.000588 
-0.000049 0.000336 -0.000544 
0.000000 0.000349 -0.000543 
0.000049 0.000336 -0.000544 
0.000134 0.000265 -0.000588 
-0.000258 0.000412 -0.001288 
-0.000094 0.000484 -0.001236 
0.000000 0.000500 -0.001245 
0.000094 0.000484 -0.001236 
0.000258 0.000412 -0.001288 
0.000309 0.000731 0.001871 
0.000130 0.000825 0.001827 
0.000000 0.000849 0.001829 
-0.000130 0.000825 0.001827 
-0.000309 0.000731 0.001871 
0.000162 0.000576 0.000872 
0.000069 0.000668 0.000835 
0.000000 0.000689 0.000829 
-0.000069 0.000668 0.000835 
-0.000162 0.000576 0.000872 
0.000000 0.000530 0.000000 
0.000000 0.000624 0.000000 
0.000000 0.000644 -0.000000 
0.000000 0.000624 -0.000000 
0.000000 0.000530 -0.000000 
-0.000162 0.000576 -0.000872 
-0.000069 0.000668 -0.000835 
0.000000 0.000689 -0.000829 
0.000069 0.000668 -0.000835 
0.000162 0.000576 -0.000872 
-0.000309 0.000731 -0.001871 
-0.000130 0.000825 -0.001827 
0.000000 0.000849 -0.001829 
0.000130 0.000825 -0.001827 
0.000309 0.000731 -0.001871 
0.000338 0.001144 0.002433 
0.000153 0.001253 0.002401 
0.000000 0.001284 0.002400 
-0.000153 0.001253 0.002401 
-0.000338 0.001144 0.002433 
0.000177 0.000987 0.001150 
0.000081 0.001095 0.001122 
0.000000 0.001123 0.001116 
-0.000081 0.001095 0.001122 
-0.000177 0.000987 0.001150 
0.000000 0.000937 0.000000 
0.000000 0.001046 0.000000 
0.000000 0.001072 -0.000000 
0.000000 0.001046 -0.000000 
0.000000 0.000937 -0.000000 
-0.000177 0.000987 -0.001150 
-0.000081 0.001095 -0.001122 
0.000000 0.001123 -0.001116 
0.000081 0.001095 -0.001122 
0.000177 0.000987 -0.001150 
-0.000338 0.001144 -0.002433 
-0.000153 0.001253 -0.002401 
0.000000 0.001284 -0.002400 
0.000153 0.001253 -0.002401 
0.000338 0.001144 -0.002433 
0.000354 0.001651 0.002980 
0.000167 0.001770 0.002959 
0.000000 0.001805 0.002956 
-0.000167 0.001770 0.002959 
-0.000354 0.001651 0.002980 
0.000185 0.001497 0.001421 
0.000088 0.001615 0.001403 
0.000000 0.001647 0.001397 
-0.000088 0.001615 0.001403 
-0.000185 0.001497 0.001421 
0.000000 0.001446 0.000000 
0.000000 0.001564 0.000000 
0.000000 0.001596 -0.000000 
0.000000 0.001564 -0.000000 
0.000000 0.001446 -0.000000 
-0.000185 0.001497 -0.001421 
-0.000088 0.001615 -0.001403 
0.000000 0.001647 -0.001397 
0.000088 0.001615 -0.001403 
0.000185 0.001497 -0.001421 
-0.000354 0.001651 -0.002980 
-0.000167 0.001770 -0.002959 
0.000000 0.001805 -0.002956 
0.000167 0.001770 -0.002959 
0.000354 0.001651 -0.002980 
0.000360 0.002252 0.003512 
0.000175 0.002376 0.003502 
0.000000 0.002415 0.003498 
-0.000175 0.002376 0.003502 
-0.000360 0.002252 0.003512 
0.000187 0.002101 0.001685 
0.000091 0.002225 0.001675 
0.000000 0.002261 0.001670 
-0.000091 0.002225 0.001675 
-0.000187 0.002101 0.001685 
0.000000 0.002050 0.000000 
0.000000 0.002175 0.000000 
0.000000 0.002210 -0.000000 
0.000000 0.002175 -0.000000 
0.000000 0.002050 -0.000000 
-0.000187 0.002101 -0.001685 
-0.000091 0.002225 -0.001675 
0.000000 0.002261 -0.001670 
0.000091 0.002225 -0.001675 
0.000187 0.002101 -0.001685 
-0.000360 0.002252 -0.003512 
-0.000175 0.002376 -0.003502 
0.000000 0.002415 -0.003498 
0.000175 0.002376 -0.003502 
0.000360 0.002252 -0.003512 
0.000360 0.002944 0.004032 
0.000177 0.003070 0.004029 
0.000000 0.003111 0.004026 
-0.000177 0.003070 0.004028 
-0.000360 0.002944 0.004032 
0.000187 0.002797 0.001943 
0.000092 0.002924 0.001940 
0.000000 0.002962 0.001936 
-0.000092 0.002924 0.001940 
-0.000187 0.002797 0.001943 
0.000000 0.002747 0.000000 
0.000000 0.002875 0.000000 
0.000000 0.002913 -0.000000 
0.000000 0.002875 -0.000000 
0.000000 0.002747 -0.000000 
-0.000187 0.002797 -0.001943 
-0.000092 0.002924 -0.001940 
0.000000 0.002962 -0.001936 
0.000092 0.002924 -0.001940 
0.000187 0.002797 -0.001943 
-0.000360 0.002944 -0.004032 
-0.000177 0.003070 -0.004029 
0.000000 0.003111 -0.004026 
0.000177 0.003070 -0.004029 
0.000360 0.002944 -0.004032 
0.000357 0.003723 0.004537 
0.000177 0.003850 0.004540 
0.000000 0.003891 0.004538 
-0.000177 0.003850 0.004540 
-0.000356 0.003723 0.004537 
0.000184 0.003581 0.002195 
0.000091 0.003708 0.002196 
0.000000 0.003748 0.002194 
-0.000091 0.003708 0.002196 
-0.000184 0.003581 0.002195 
0.000000 0.003532 0.000000 
0.000000 0.003661 0.000000 
0.000000 0.003700 -0.000000 
0.000000 0.003661 -0.000000 
0.000000 0.003532 -0.000000 
-0.000184 0.003581 -0.002195 
-0.000091 0.003708 -0.002196 
0.000000 0.003748 -0.002194 
0.000091 0.003708 -0.002196 
0.000184 0.003581 -0.002195 
-0.000356 0.003723 -0.004537 
-0.000177 0.003850 -0.004540 
0.000000 0.003891 -0.004538 
0.000177 0.003850 -0.004540 
0.000357 0.003723 -0.004537 
0.000350 0.004587 0.005029 
0.000174 0.004714 0.005035 
0.000000 0.004755 0.005034 
-0.000174 0.004714 0.005035 
-0.000350 0.004587 0.005029 
0.000180 0.004449 0.002439 
0.000089 0.004576 0.002444 
0.000000 0.004617 0.002443 
-0.000089 0.004576 0.002444 
-0.000180 0.004449 0.002439 
0.000000 0.004403 0.000000 
0.000000 0.004531 0.000000 
0.000000 0.004570 -0.000000 
0.000000 0.004531 -0.000000 
0.000000 0.004403 -0.000000 
-0.000180 0.004449 -0.002439 
-0.000089 0.004576 -0.002444 
0.000000 0.004617 -0.002443 
0.000089 0.004576 -0.002444 
0.000180 0.004449 -0.002439 
-0.000350 0.004587 -0.005029 
-0.000174 0.004714 -0.005035 
0.000000 0.004755 -0.005034 
0.000174 0.004714 -0.005035 
0.000350 0.004587 -0.005029 
0.000341 0.005534 0.005506 
0.000171 0.005658 0.005515 
0.000000 0.005699 0.005515 
-0.000171 0.005658 0.005515 
-0.000341 0.005534 0.005506 
0.000175 0.005400 0.002677 
0.000087 0.005525 0.002684 
0.000000 0.005566 0.002685 
-0.000087 0.005525 0.002684 
-0.000175 0.005400 0.002677 
0.000000 0.005355 0.000000 
0.000000 0.005482 0.000000 
0.000000 0.005521 -0.000000 
0.000000 0.005482 -0.000000 
0.000000 0.005355 -0.000000 
-0.000175 0.005400 -0.002677 
-0.000087 0.005525 -0.002684 
0.000000 0.005566 -0.002685 
0.000087 0.005525 -0.002684 
0.000175 0.005400 -0.002677 
-0.000341 0.005534 -0.005506 
-0.000171 0.005658 -0.005515 
0.000000 0.005699 -0.005515 
0.000171 0.005658 -0.005515 
0.000341 0.005534 -0.005506 
0.000332 0.006560 0.005968 
0.000166 0.006681 0.005980 
0.000000 0.006722 0.005980 
-0.000166 0.006681 0.005980 
-0.000332 0.006560 0.005968 
0.000170 0.006431 0.002908 
0.000085 0.006553 0.002916 
0.000000 0.006593 0.002918 
-0.000084 0.006553 0.002916 
-0.000170 0.006431 0.002907 
0.000000 0.006387 0.000000 
0.000000 0.006511 0.000000 
0.000000 0.006550 -0.000000 
0.000000 0.006511 -0.000000 
0.000000 0.006387 -0.000000 
-0.000170 0.006431 -0.002907 
-0.000084 0.006553 -0.002916 
0.000000 0.006593 -0.002918 
0.000085 0.006553 -0.002916 
0.000170 0.006431 -0.002908 
-0.000332 0.006560 -0.005968 
-0.000166 0.006681 -0.005980 
0.000000 0.006722 -0.005980 
0.000166 0.006681 -0.005980 
0.000332 0.006560 -0.005968 
0.000321 0.007662 0.006416 
0.000161 0.007781 0.006429 
0.000000 0.007820 0.006429 
-0.000161 0.007781 0.006429 
-0.000321 0.007662 0.006416 
0.000164 0.007537 0.003131 
0.000082 0.007657 0.003141 
0.000000 0.007696 0.003143 
-0.000082 0.007657 0.003141 
-0.000164 0.007537 0.003131 
0.000000 0.007495 0.000000 
0.000000 0.007616 0.000000 
0.000000 0.007655 -0.000000 
0.000000 0.007616 -0.000000 
0.000000 0.007495 -0.000000 
-0.000164 0.007537 -0.003131 
-0.000082 0.007657 -0.003141 
0.000000 0.007696 -0.003143 
0.000082 0.007657 -0.003141 
0.000164 0.007537 -0.003131 
-0.000321 0.007662 -0.006416 
-0.000161 0.007781 -0.006429 
0.000000 0.007820 -0.006429 
0.000161 0.007781 -0.006429 
0.000321 0.007662 -0.006416 
0.000311 0.008839 0.006848 
0.000156 0.008953 0.006862 
0.000000 0.008992 0.006863 
-0.000156 0.008953 0.006862 
-0.000311 0.008839 0.006848 
0.000159 0.008718 0.003347 
0.000079 0.008834 0.003357 
0.000000 0.008872 0.003360 
-0.000079 0.008834 0.003357 
-0.000159 0.008718 0.003347 
0.000000 0.008677 0.000000 
0.000000 0.008794 0.000000 
0.000000 0.008832 -0.000000 
0.000000 0.008794 -0.000000 
0.000000 0.008677 -0.000000 
-0.000159 0.008718 -0.003347 
-0.000079 0.008834 -0.003357 
0.000000 0.008872 -0.003360 
0.000079 0.008834 -0.003357 
0.000159 0.008718 -0.003347 
-0.000311 0.008839 -0.006848 
-0.000156 0.008953 -0.006862 
0.000000 0.008992 -0.006863 
0.000156 0.008953 -0.006862 
0.000311 0.008839 -0.006848 
0.000300 0.010086 0.007266 
0.000151 0.010197 0.007280 
0.000000 0.010235 0.007281 
-0.000150 0.010197 0.007280 
-0.000300 0.010086 0.007265 
0.000153 0.009970 0.003555 
0.000076 0.010082 0.003566 
0.000000 0.010119 0.003569 
-0.000076 0.010082 0.003566 
-0.000153 0.009970 0.003555 
0.000000 0.009931 0.000000 
0.000000 0.010044 0.000000 
0.000000 0.010081 -0.000000 
0.000000 0.010044 -0.000000 
0.000000 0.009931 -0.000000 
-0.000153 0.009970 -0.003555 
-0.000076 0.010082 -0.003566 
0.000000 0.010119 -0.003569 
0.000076 0.010082 -0.003566 
0.000153 0.009970 -0.003555 
-0.000300 0.010086 -0.007265 
-0.000150 0.010197 -0.007280 
0.000000 0.010235 -0.007281 
0.000151 0.010197 -0.007280 
0.000300 0.010086 -0.007266 
0.000289 0.011402 0.007667 
0.000145 0.011509 0.007682 
0.000000 0.011545 0.007683 
-0.000145 0.011509 0.007682 
-0.000288 0.011402 0.007667 
0.000147 0.011290 0.003756 
0.000073 0.011398 0.003767 
0.000000 0.011434 0.003770 
-0.000073 0.011398 0.003767 
-0.000147 0.011290 0.003756 
0.000000 0.011253 0.000000 
0.000000 0.011362 0.000000 
0.000000 0.011397 -0.000000 
0.000000 0.011362 -0.000000 
0.000000 0.011253 -0.000000 
-0.000147 0.011290 -0.003756 
-0.000073 0.011398 -0.003767 
0.000000 0.011434 -0.003770 
0.000073 0.011398 -0.003767 
0.000147 0.011290 -0.003756 
-0.000288 0.011402 -0.007667 
-0.000145 0.011509 -0.007682 
0.000000 0.011545 -0.007683 
0.000145 0.011509 -0.007682 
0.000289 0.011402 -0.007668 
0.000277 0.012784 0.008054 
0.000139 0.012887 0.008069 
0.000000 0.012922 0.008070 
-0.000139 0.012887 0.008069 
-0.000277 0.012784 0.008054 
0.000141 0.012677 0.003949 
0.000070 0.012781 0.003961 
0.000000 0.012815 0.003963 
-0.000070 0.012781 0.003961 
-0.000141 0.012677 0.003949 
0.000000 0.012641 0.000000 
0.000000 0.012745 0.000000 
0.000000 0.012780 -0.000000 
0.000000 0.012745 -0.000000 
0.000000 0.012641 -0.000000 
-0.000141 0.012677 -0.003949 
-0.000070 0.012781 -0.003961 
0.000000 0.012815 -0.003963 
0.000070 0.012781 -0.003961 
0.000141 0.012677 -0.003949 
-0.000277 0.012784 -0.008054 
-0.000139 0.012887 -0.008069 
0.000000 0.012922 -0.008070 
0.000139 0.012887 -0.008069 
0.000277 0.012784 -0.008054 
0.000266 0.014229 0.008425 
0.000134 0.014328 0.008440 
0.000000 0.014362 0.008441 
-0.000133 0.014328 0.008440 
-0.000266 0.014229 0.008425 
0.000136 0.014126 0.004134 
0.000067 0.014226 0.004146 
0.000000 0.014259 0.004149 
-0.000067 0.014226 0.004146 
-0.000135 0.014126 0.004134 
0.000000 0.014092 0.000000 
0.000000 0.014192 0.000000 
0.000000 0.014225 -0.000000 
0.000000 0.014192 -0.000000 
0.000000 0.014092 -0.000000 
-0.000135 0.014126 -0.004134 
-0.000067 0.014226 -0.004146 
0.000000 0.014259 -0.004149 
0.000067 0.014226 -0.004146 
0.000136 0.014126 -0.004135 
-0.000266 0.014229 -0.008425 
-0.000133 0.014328 -0.008440 
0.000000 0.014362 -0.008441 
0.000134 0.014328 -0.008440 
0.000266 0.014229 -0.008425 
0.000255 0.015735 0.008781 
0.000128 0.015830 0.008796 
0.000000 0.015862 0.008797 
-0.000128 0.015830 0.008796 
-0.000254 0.015735 0.008781 
0.000130 0.015637 0.004312 
0.000065 0.015732 0.004324 
0.000000 0.015764 0.004327 
-0.000064 0.015732 0.004324 
-0.000130 0.015637 0.004312 
0.000000 0.015603 0.000000 
0.000000 0.015700 0.000000 
0.000000 0.015731 -0.000000 
0.000000 0.015700 -0.000000 
0.000000 0.015603 -0.000000 
-0.000130 0.015637 -0.004312 
-0.000064 0.015732 -0.004324 
0.000000 0.015764 -0.004327 
0.000065 0.015732 -0.004324 
0.000130 0.015637 -0.004312 
-0.000254 0.015735 -0.008781 
-0.000128 0.015830 -0.008796 
0.000000 0.015862 -0.008797 
0.000128 0.015830 -0.008796 
0.000255 0.015735 -0.008781 
0.000243 0.017299 0.009121 
0.000122 0.017390 0.009136 
0.000000 0.017420 0.009137 
-0.000122 0.017390 0.009136 
-0.000243 0.017299 0.009121 
0.000124 0.017205 0.004482 
0.000062 0.017296 0.004494 
0.000000 0.017327 0.004497 
-0.000061 0.017296 0.004494 
-0.000124 0.017205 0.004482 
0.000000 0.017173 0.000000 
0.000000 0.017265 0.000000 
0.000000 0.017296 -0.000000 
0.000000 0.017265 -0.000000 
0.000000 0.017173 -0.000000 
-0.000124 0.017205 -0.004482 
-0.000061 0.017296 -0.004494 
0.000000 0.017327 -0.004497 
0.000062 0.017296 -0.004494 
0.000124 0.017205 -0.004482 
-0.000243 0.017299 -0.009121 
-0.000122 0.017390 -0.009136 
0.000000 0.017420 -0.009137 
0.000122 0.017390 -0.009136 
0.000243 0.017299 -0.009121 
0.000232 0.018919 0.009445 
0.000117 0.019005 0.009461 
0.000000 0.019034 0.009462 
-0.000116 0.019005 0.009460 
-0.000232 0.018919 0.009445 
0.000118 0.018829 0.004644 
0.000059 0.018916 0.004656 
0.000000 0.018945 0.004659 
-0.000058 0.018916 0.004656 
-0.000118 0.018829 0.004644 
0.000000 0.018798 0.000000 
0.000000 0.018886 0.000000 
0.000000 0.018915 -0.000000 
0.000000 0.018886 -0.000000 
0.000000 0.018798 -0.000000 
-0.000118 0.018829 -0.004644 
-0.000059 0.018916 -0.004656 
0.000000 0.018945 -0.004659 
0.000059 0.018916 -0.004656 
0.000118 0.018829 -0.004644 
-0.000232 0.018919 -0.009445 
-0.000116 0.019005 -0.009460 
0.000000 0.019034 -0.009462 
0.000117 0.019005 -0.009461 
0.000232 0.018919 -0.009445 
0.000221 0.020591 0.009754 
0.000111 0.020673 0.009770 
0.000000 0.020701 0.009771 
-0.000111 0.020673 0.009770 
-0.000220 0.020591 0.009754 
0.000112 0.020505 0.004799 
0.000056 0.020588 0.004811 
0.000000 0.020616 0.004814 
-0.000056 0.020588 0.004811 
-0.000112 0.020505 0.004799 
0.000000 0.020477 0.000000 
0.000000 0.020560 0.000000 
0.000000 0.020588 -0.000000 
0.000000 0.020560 -0.000000 
0.000000 0.020477 -0.000000 
-0.000112 0.020505 -0.004799 
-0.000056 0.020588 -0.004811 
0.000000 0.020616 -0.004814 
0.000056 0.020588 -0.004811 
0.000112 0.020505 -0.004799 
-0.000220 0.020591 -0.009754 
-0.000111 0.020673 -0.009770 
0.000000 0.020701 -0.009771 
0.000111 0.020673 -0.009770 
0.000221 0.020591 -0.009754 
0.000209 0.022313 0.010048 
0.000105 0.022391 0.010063 
0.000000 0.022417 0.010065 
-0.000105 0.022391 0.010063 
-0.000209 0.022313 0.010048 
0.000107 0.022232 0.004945 
0.000053 0.022311 0.004957 
0.000000 0.022337 0.004960 
-0.000053 0.022311 0.004957 
-0.000106 0.022232 0.004945 
0.000000 0.022205 0.000000 
0.000000 0.022284 0.000000 
0.000000 0.022310 -0.000000 
0.000000 0.022284 -0.000000 
0.000000 0.022205 -0.000000 
-0.000106 0.022232 -0.004945 
-0.000053 0.022311 -0.004957 
0.000000 0.022337 -0.004960 
0.000053 0.022311 -0.004957 
0.000107 0.022232 -0.004945 
-0.000209 0.022313 -0.010048 
-0.000105 0.022391 -0.010063 
0.000000 0.022417 -0.010065 
0.000105 0.022391 -0.010063 
0.000209 0.022313 -0.010048 
0.000198 0.024084 0.010326 
0.000099 0.024157 0.010341 
0.000000 0.024182 0.010342 
-0.000099 0.024157 0.010341 
-0.000197 0.024084 0.010326 
0.000101 0.024007 0.005084 
0.000050 0.024081 0.005096 
0.000000 0.024106 0.005099 
-0.000050 0.024081 0.005096 
-0.000100 0.024007 0.005084 
0.000000 0.023981 0.000000 
0.000000 0.024056 0.000000 
0.000000 0.024081 -0.000000 
0.000000 0.024056 -0.000000 
0.000000 0.023981 -0.000000 
-0.000100 0.024007 -0.005084 
-0.000050 0.024081 -0.005096 
0.000000 0.024106 -0.005099 
0.000050 0.024081 -0.005096 
0.000101 0.024007 -0.005084 
-0.000197 0.024084 -0.010326 
-0.000099 0.024157 -0.010341 
0.000000 0.024182 -0.010342 
0.000099 0.024157 -0.010341 
0.000198 0.024084 -0.010326 
0.000186 0.025899 0.010588 
0.000094 0.025968 0.010603 
0.000000 0.025992 0.010605 
-0.000093 0.025968 0.010603 
-0.000186 0.025899 0.010588 
0.000095 0.025827 0.005215 
0.000047 0.025897 0.005227 
0.000000 0.025920 0.005230 
-0.000047 0.025897 0.005227 
-0.000095 0.025827 0.005215 
0.000000 0.025803 0.000000 
0.000000 0.025873 0.000000 
0.000000 0.025896 -0.000000 
0.000000 0.025873 -0.000000 
0.000000 0.025803 -0.000000 
-0.000095 0.025827 -0.005215 
-0.000047 0.025897 -0.005227 
0.000000 0.025920 -0.005230 
0.000047 0.025897 -0.005227 
0.000095 0.025827 -0.005215 
-0.000186 0.025899 -0.010588 
-0.000093 0.025968 -0.010603 
0.000000 0.025992 -0.010605 
0.000094 0.025968 -0.010603 
0.000186 0.025899 -0.010588 
0.000175 0.027757 0.010835 
0.000088 0.027822 0.010850 
0.000000 0.027844 0.010851 
-0.000087 0.027822 0.010850 
-0.000174 0.027757 0.010834 
0.000089 0.027689 0.005338 
0.000044 0.027755 0.005350 
0.000000 0.027777 0.005353 
-0.000044 0.027755 0.005350 
-0.000089 0.027689 0.005338 
0.000000 0.027667 0.000000 
0.000000 0.027733 0.000000 
0.000000 0.027755 -0.000000 
0.000000 0.027733 -0.000000 
0.000000 0.027667 -0.000000 
-0.000089 0.027689 -0.005338 
-0.000044 0.027755 -0.005350 
0.000000 0.027777 -0.005353 
0.000044 0.027755 -0.005350 
0.000089 0.027689 -0.005338 
-0.000174 0.027757 -0.010834 
-0.000087 0.027822 -0.010850 
0.000000 0.027844 -0.010851 
0.000088 0.027822 -0.010850 
0.000175 0.027757 -0.010835 
0.000163 0.029655 0.011066 
0.000082 0.029715 0.011081 
0.000000 0.029736 0.011082 
-0.000082 0.029715 0.011081 
-0.000163 0.029655 0.011065 
0.000083 0.029592 0.005454 
0.000041 0.029653 0.005466 
0.000000 0.029673 0.005469 
-0.000041 0.029653 0.005466 
-0.000083 0.029592 0.005454 
0.000000 0.029570 0.000000 
0.000000 0.029632 0.000000 
0.000000 0.029652 -0.000000 
0.000000 0.029632 -0.000000 
0.000000 0.029570 -0.000000 
-0.000083 0.029592 -0.005454 
-0.000041 0.029653 -0.005466 
0.000000 0.029673 -0.005469 
0.000041 0.029653 -0.005466 
0.000083 0.029592 -0.005454 
-0.000163 0.029655 -0.011065 
-0.000082 0.029715 -0.011081 
0.000000 0.029736 -0.011082 
0.000082 0.029715 -0.011081 
0.000163 0.029655 -0.011066 
0.000152 0.031590 0.011281 
0.000076 0.031646 0.011296 
0.000000 0.031665 0.011298 
-0.000076 0.031646 0.011296 
-0.000151 0.031590 0.011281 
0.000077 0.031531 0.005561 
0.000039 0.031588 0.005573 
0.000000 0.031607 0.005576 
-0.000038 0.031588 0.005573 
-0.000077 0.031531 0.005561 
0.000000 0.031511 0.000000 
0.000000 0.031569 0.000000 
0.000000 0.031588 -0.000000 
0.000000 0.031569 -0.000000 
0.000000 0.031511 -0.000000 