<?xml version="1.0"?>
<VTKFile type="UnstructuredGrid"  version="0.1"  >
<UnstructuredGrid>
<Piece  NumberOfPoints="1025" NumberOfCells="640">
<Points>
<DataArray  type="Float32"  NumberOfComponents="3"  format="ascii">
0.000000 0.000000 0.000000 
0.750000 0.000000 0.000000 
1.500000 0.000000 0.000000 
2.250000 0.000000 0.000000 
3.000000 0.000000 0.000000 
0.000000 0.750000 0.000000 
0.750000 0.750000 0.000000 
1.500000 0.750000 0.000000 
2.250000 0.750000 0.000000 
3.000000 0.750000 0.000000 
0.000000 1.500000 0.000000 
0.750000 1.500000 0.000000 
1.500000 1.500000 0.000000 
2.250000 1.500000 0.000000 
3.000000 1.500000 0.000000 
0.000000 2.250000 0.000000 
0.750000 2.250000 0.000000 
1.500000 2.250000 0.000000 
2.250000 2.250000 0.000000 
3.000000 2.250000 0.000000 
0.000000 3.000000 0.000000 
0.750000 3.000000 0.000000 
1.500000 3.000000 0.000000 
2.250000 3.000000 0.000000 
3.000000 3.000000 0.000000 
0.000000 0.000000 0.250000 
0.750000 0.000000 0.250000 
1.500000 0.000000 0.250000 
2.250000 0.000000 0.250000 
3.000000 0.000000 0.250000 
0.000000 0.750000 0.250000 
0.750000 0.750000 0.250000 
1.500000 0.750000 0.250000 
2.250000 0.750000 0.250000 
3.000000 0.750000 0.250000 
0.000000 1.500000 0.250000 
0.750000 1.500000 0.250000 
1.500000 1.500000 0.250000 
2.250000 1.500000 0.250000 
3.000000 1.500000 0.250000 
0.000000 2.250000 0.250000 
0.750000 2.250000 0.250000 
1.500000 2.250000 0.250000 
2.250000 2.250000 0.250000 
3.000000 2.250000 0.250000 
0.000000 3.000000 0.250000 
0.750000 3.000000 0.250000 
1.500000 3.000000 0.250000 
2.250000 3.000000 0.250000 
3.000000 3.000000 0.250000 
0.000000 0.000000 0.500000 
0.750000 0.000000 0.500000 
1.500000 0.000000 0.500000 
2.250000 0.000000 0.500000 
3.000000 0.000000 0.500000 
0.000000 0.750000 0.500000 
0.750000 0.750000 0.500000 
1.500000 0.750000 0.500000 
2.250000 0.750000 0.500000 
3.000000 0.750000 0.500000 
0.000000 1.500000 0.500000 
0.750000 1.500000 0.500000 
1.500000 1.500000 0.500000 
2.250000 1.500000 0.500000 
3.000000 1.500000 0.500000 
0.000000 2.250000 0.500000 
0.750000 2.250000 0.500000 
1.500000 2.250000 0.500000 
2.250000 2.250000 0.500000 
3.000000 2.250000 0.500000 
0.000000 3.000000 0.500000 
0.750000 3.000000 0.500000 
1.500000 3.000000 0.500000 
2.250000 3.000000 0.500000 
3.000000 3.000000 0.500000 
0.000000 0.000000 0.750000 
0.750000 0.000000 0.750000 
1.500000 0.000000 0.750000 
2.250000 0.000000 0.750000 
3.000000 0.000000 0.750000 
0.000000 0.750000 0.750000 
0.750000 0.750000 0.750000 
1.500000 0.750000 0.750000 
2.250000 0.750000 0.750000 
3.000000 0.750000 0.750000 
0.000000 1.500000 0.750000 
0.750000 1.500000 0.750000 
1.500000 1.500000 0.750000 
2.250000 1.500000 0.750000 
3.000000 1.500000 0.750000 
0.000000 2.250000 0.750000 
0.750000 2.250000 0.750000 
1.500000 2.250000 0.750000 
2.250000 2.250000 0.750000 
3.000000 2.250000 0.750000 
0.000000 3.000000 0.750000 
0.750000 3.000000 0.750000 
1.500000 3.000000 0.750000 
2.250000 3.000000 0.750000 
3.000000 3.000000 0.750000 
0.000000 0.000000 1.000000 
0.750000 0.000000 1.000000 
1.500000 0.000000 1.000000 
2.250000 0.000000 1.000000 
3.000000 0.000000 1.000000 
0.000000 0.750000 1.000000 
0.750000 0.750000 1.000000 
1.500000 0.750000 1.000000 
2.250000 0.750000 1.000000 
3.000000 0.750000 1.000000 
0.000000 1.500000 1.000000 
0.750000 1.500000 1.000000 
1.500000 1.500000 1.000000 
2.250000 1.500000 1.000000 
3.000000 1.500000 1.000000 
0.000000 2.250000 1.000000 
0.750000 2.250000 1.000000 
1.500000 2.250000 1.000000 
2.250000 2.250000 1.000000 
3.000000 2.250000 1.000000 
0.000000 3.000000 1.000000 
0.750000 3.000000 1.000000 
1.500000 3.000000 1.000000 
2.250000 3.000000 1.000000 
3.000000 3.000000 1.000000 
0.000000 0.000000 1.250000 
0.750000 0.000000 1.250000 
1.500000 0.000000 1.250000 
2.250000 0.000000 1.250000 
3.000000 0.000000 1.250000 
0.000000 0.750000 1.250000 
0.750000 0.750000 1.250000 
1.500000 0.750000 1.250000 
2.250000 0.750000 1.250000 
3.000000 0.750000 1.250000 
0.000000 1.500000 1.250000 
0.750000 1.500000 1.250000 
1.500000 1.500000 1.250000 
2.250000 1.500000 1.250000 
3.000000 1.500000 1.250000 
0.000000 2.250000 1.250000 
0.750000 2.250000 1.250000 
1.500000 2.250000 1.250000 
2.250000 2.250000 1.250000 
3.000000 2.250000 1.250000 
0.000000 3.000000 1.250000 
0.750000 3.000000 1.250000 
1.500000 3.000000 1.250000 
2.250000 3.000000 1.250000 
3.000000 3.000000 1.250000 
0.000000 0.000000 1.500000 
0.750000 0.000000 1.500000 
1.500000 0.000000 1.500000 
2.250000 0.000000 1.500000 
3.000000 0.000000 1.500000 
0.000000 0.750000 1.500000 
0.750000 0.750000 1.500000 
1.500000 0.750000 1.500000 
2.250000 0.750000 1.500000 
3.000000 0.750000 1.500000 
0.000000 1.500000 1.500000 
0.750000 1.500000 1.500000 
1.500000 1.500000 1.500000 
2.250000 1.500000 1.500000 
3.000000 1.500000 1.500000 
0.000000 2.250000 1.500000 
0.750000 2.250000 1.500000 
1.500000 2.250000 1.500000 
2.250000 2.250000 1.500000 
3.000000 2.250000 1.500000 
0.000000 3.000000 1.500000 
0.750000 3.000000 1.500000 
1.500000 3.000000 1.500000 
2.250000 3.000000 1.500000 
3.000000 3.000000 1.500000 
0.000000 0.000000 1.750000 
0.750000 0.000000 1.750000 
1.500000 0.000000 1.750000 
2.250000 0.000000 1.750000 
3.000000 0.000000 1.750000 
0.000000 0.750000 1.750000 
0.750000 0.750000 1.750000 
1.500000 0.750000 1.750000 
2.250000 0.750000 1.750000 
3.000000 0.750000 1.750000 
0.000000 1.500000 1.750000 
0.750000 1.500000 1.750000 
1.500000 1.500000 1.750000 
2.250000 1.500000 1.750000 
3.000000 1.500000 1.750000 
0.000000 2.250000 1.750000 
0.750000 2.250000 1.750000 
1.500000 2.250000 1.750000 
2.250000 2.250000 1.750000 
3.000000 2.250000 1.750000 
0.000000 3.000000 1.750000 
0.750000 3.000000 1.750000 
1.500000 3.000000 1.750000 
2.250000 3.000000 1.750000 
3.000000 3.000000 1.750000 
0.000000 0.000000 2.000000 
0.750000 0.000000 2.000000 
1.500000 0.000000 2.000000 
2.250000 0.000000 2.000000 
3.000000 0.000000 2.000000 
0.000000 0.750000 2.000000 
0.750000 0.750000 2.000000 
1.500000 0.750000 2.000000 
2.250000 0.750000 2.000000 
3.000000 0.750000 2.000000 
0.000000 1.500000 2.000000 
0.750000 1.500000 2.000000 
1.500000 1.500000 2.000000 
2.250000 1.500000 2.000000 
3.000000 1.500000 2.000000 
0.000000 2.250000 2.000000 
0.750000 2.250000 2.000000 
1.500000 2.250000 2.000000 
2.250000 2.250000 2.000000 
3.000000 2.250000 2.000000 
0.000000 3.000000 2.000000 
0.750000 3.000000 2.000000 
1.500000 3.000000 2.000000 
2.250000 3.000000 2.000000 
3.000000 3.000000 2.000000 
0.000000 0.000000 2.250000 
0.750000 0.000000 2.250000 
1.500000 0.000000 2.250000 
2.250000 0.000000 2.250000 
3.000000 0.000000 2.250000 
0.000000 0.750000 2.250000 
0.750000 0.750000 2.250000 
1.500000 0.750000 2.250000 
2.250000 0.750000 2.250000 
3.000000 0.750000 2.250000 
0.000000 1.500000 2.250000 
0.750000 1.500000 2.250000 
1.500000 1.500000 2.250000 
2.250000 1.500000 2.250000 
3.000000 1.500000 2.250000 
0.000000 2.250000 2.250000 
0.750000 2.250000 2.250000 
1.500000 2.250000 2.250000 
2.250000 2.250000 2.250000 
3.000000 2.250000 2.250000 
0.000000 3.000000 2.250000 
0.750000 3.000000 2.250000 
1.500000 3.000000 2.250000 
2.250000 3.000000 2.250000 
3.000000 3.000000 2.250000 
0.000000 0.000000 2.500000 
0.750000 0.000000 2.500000 
1.500000 0.000000 2.500000 
2.250000 0.000000 2.500000 
3.000000 0.000000 2.500000 
0.000000 0.750000 2.500000 
0.750000 0.750000 2.500000 
1.500000 0.750000 2.500000 
2.250000 0.750000 2.500000 
3.000000 0.750000 2.500000 
0.000000 1.500000 2.500000 
0.750000 1.500000 2.500000 
1.500000 1.500000 2.500000 
2.250000 1.500000 2.500000 
3.000000 1.500000 2.500000 
0.000000 2.250000 2.500000 
0.750000 2.250000 2.500000 
1.500000 2.250000 2.500000 
2.250000 2.250000 2.500000 
3.000000 2.250000 2.500000 
0.000000 3.000000 2.500000 
0.750000 3.000000 2.500000 
1.500000 3.000000 2.500000 
2.250000 3.000000 2.500000 
3.000000 3.000000 2.500000 
0.000000 0.000000 2.750000 
0.750000 0.000000 2.750000 
1.500000 0.000000 2.750000 
2.250000 0.000000 2.750000 
3.000000 0.000000 2.750000 
0.000000 0.750000 2.750000 
0.750000 0.750000 2.750000 
1.500000 0.750000 2.750000 
2.250000 0.750000 2.750000 
3.000000 0.750000 2.750000 
0.000000 1.500000 2.750000 
0.750000 1.500000 2.750000 
1.500000 1.500000 2.750000 
2.250000 1.500000 2.750000 
3.000000 1.500000 2.750000 
0.000000 2.250000 2.750000 
0.750000 2.250000 2.750000 
1.500000 2.250000 2.750000 
2.250000 2.250000 2.750000 
3.000000 2.250000 2.750000 
0.000000 3.000000 2.750000 
0.750000 3.000000 2.750000 
1.500000 3.000000 2.750000 
2.250000 3.000000 2.750000 
3.000000 3.000000 2.750000 
0.000000 0.000000 3.000000 
0.750000 0.000000 3.000000 
1.500000 0.000000 3.000000 
2.250000 0.000000 3.000000 
3.000000 0.000000 3.000000 
0.000000 0.750000 3.000000 
0.750000 0.750000 3.000000 
1.500000 0.750000 3.000000 
2.250000 0.750000 3.000000 
3.000000 0.750000 3.000000 
0.000000 1.500000 3.000000 
0.750000 1.500000 3.000000 
1.500000 1.500000 3.000000 
2.250000 1.500000 3.000000 
3.000000 1.500000 3.000000 
0.000000 2.250000 3.000000 
0.750000 2.250000 3.000000 
1.500000 2.250000 3.000000 
2.250000 2.250000 3.000000 
3.000000 2.250000 3.000000 
0.000000 3.000000 3.000000 
0.750000 3.000000 3.000000 
1.500000 3.000000 3.000000 
2.250000 3.000000 3.000000 
3.000000 3.000000 3.000000 
0.000000 0.000000 3.250000 
0.750000 0.000000 3.250000 
1.500000 0.000000 3.250000 
2.250000 0.000000 3.250000 
3.000000 0.000000 3.250000 
0.000000 0.750000 3.250000 
0.750000 0.750000 3.250000 
1.500000 0.750000 3.250000 
2.250000 0.750000 3.250000 
3.000000 0.750000 3.250000 
0.000000 1.500000 3.250000 
0.750000 1.500000 3.250000 
1.500000 1.500000 3.250000 
2.250000 1.500000 3.250000 
3.000000 1.500000 3.250000 
0.000000 2.250000 3.250000 
0.750000 2.250000 3.250000 
1.500000 2.250000 3.250000 
2.250000 2.250000 3.250000 
3.000000 2.250000 3.250000 
0.000000 3.000000 3.250000 
0.750000 3.000000 3.250000 
1.500000 3.000000 3.250000 
2.250000 3.000000 3.250000 
[...]
<PointData  Scalars="u">
<DataArray  type="Float32"  Name="VectorField1"  NumberOfComponents="3" format="ascii">
0.000000 0.000000 0.000000 
0.000000 0.000000 0.000000 
0.000000 0.000000 0.000000 
0.000000 0.000000 0.000000 
0.000000 0.000000 0.000000 
0.000000 0.000000 0.000000 
0.000000 0.000000 0.000000 
0.000000 0.000000 0.000000 
0.000000 0.000000 0.000000 
0.000000 0.000000 0.000000 
0.000000 0.000000 0.000000 
0.000000 0.000000 0.000000 
0.000000 0.000000 0.000000 
0.000000 0.000000 0.000000 
0.000000 0.000000 0.000000 
0.000000 0.000000 0.000000 
0.000000 0.000000 0.000000 
0.000000 0.000000 0.000000 
0.000000 0.000000 0.000000 
0.000000 0.000000 0.000000 
0.000000 0.000000 0.000000 
0.000000 0.000000 0.000000 
0.000000 0.000000 0.000000 
0.000000 0.000000 0.000000 
0.000000 0.000000 0.000000 
0.000188 0.000199 0.000737 
0.000048 0.000241 0.000685 
-0.000000 0.000249 0.000702 
-0.000048 0.000241 0.000685 
-0.000188 0.000199 0.000737 
0.000094 0.000069 0.000324 
0.000025 0.000115 0.000283 
-0.000000 0.000120 0.000287 
-0.000025 0.000115 0.000283 
-0.000094 0.000069 0.000324 
0.000000 0.000061 0.000000 
0.000000 0.000109 0.000000 
0.000000 0.000116 -0.000000 
0.000000 0.000109 -0.000000 
0.000000 0.000061 -0.000000 
-0.000094 0.000069 -0.000324 
-0.000025 0.000115 -0.000283 
0.000000 0.000120 -0.000287 
0.000025 0.000115 -0.000283 
0.000094 0.000069 -0.000324 
-0.000188 0.000199 -0.000737 
-0.000048 0.000241 -0.000685 
0.000000 0.000249 -0.000702 
0.000048 0.000241 -0.000685 
0.000188 0.000199 -0.000737 
0.000283 0.000452 0.001410 
0.000102 0.000530 0.001353 
-0.000000 0.000547 0.001362 
-0.000102 0.000530 0.001353 
-0.000283 0.000452 0.001410 
0.000147 0.000291 0.000643 
0.000054 0.000368 0.000596 
-0.000000 0.000383 0.000594 
-0.000054 0.000368 0.000596 
-0.000147 0.000291 0.000643 
0.000000 0.000255 0.000000 
0.000000 0.000335 0.000000 
0.000000 0.000350 -0.000000 
0.000000 0.000335 -0.000000 
0.000000 0.000255 -0.000000 
-0.000147 0.000291 -0.000643 
-0.000054 0.000368 -0.000596 
0.000000 0.000383 -0.000594 
0.000054 0.000368 -0.000596 
0.000147 0.000291 -0.000643 
-0.000283 0.000452 -0.001410 
-0.000102 0.000530 -0.001353 
0.000000 0.000547 -0.001362 
0.000102 0.000530 -0.001353 
0.000283 0.000452 -0.001410 
0.000338 0.000801 0.002048 
0.000142 0.000904 0.002000 
-0.000000 0.000930 0.002002 
-0.000142 0.000904 0.002000 
-0.000338 0.000801 0.002048 
0.000177 0.000631 0.000955 
0.000075 0.000732 0.000914 
-0.000000 0.000755 0.000908 
-0.000075 0.000732 0.000914 
-0.000177 0.000631 0.000955 
0.000000 0.000581 0.000000 
0.000000 0.000684 0.000000 
0.000000 0.000706 -0.000000 
0.000000 0.000684 -0.000000 
0.000000 0.000581 -0.000000 
-0.000177 0.000631 -0.000955 
-0.000075 0.000732 -0.000914 
0.000000 0.000755 -0.000908 
0.000075 0.000732 -0.000914 
0.000177 0.000631 -0.000955 
-0.000338 0.000801 -0.002048 
-0.000142 0.000904 -0.002000 
0.000000 0.000930 -0.002002 
0.000142 0.000904 -0.002000 
0.000338 0.000801 -0.002048 
0.000370 0.001253 0.002663 
0.000168 0.001373 0.002628 
-0.000000 0.001406 0.002627 
-0.000168 0.001373 0.002628 
-0.000370 0.001253 0.002663 
0.000194 0.001082 0.001258 
0.000089 0.001199 0.001228 
-0.000000 0.001230 0.001221 
-0.000089 0.001199 0.001228 
-0.000194 0.001082 0.001258 
0.000000 0.001027 0.000000 
0.000000 0.001146 0.000000 
0.000000 0.001175 -0.000000 
0.000000 0.001146 -0.000000 
0.000000 0.001027 -0.000000 
-0.000194 0.001082 -0.001258 
-0.000089 0.001199 -0.001228 
0.000000 0.001230 -0.001221 
0.000089 0.001199 -0.001228 
0.000194 0.001082 -0.001258 
-0.000370 0.001253 -0.002663 
-0.000168 0.001373 -0.002628 
0.000000 0.001406 -0.002627 
0.000168 0.001373 -0.002628 
0.000370 0.001253 -0.002663 
0.000387 0.001809 0.003262 
0.000183 0.001939 0.003239 
-0.000000 0.001977 0.003236 
-0.000183 0.001939 0.003239 
-0.000387 0.001809 0.003262 
0.000202 0.001640 0.001555 
0.000096 0.001769 0.001535 
-0.000000 0.001805 0.001528 
-0.000096 0.001769 0.001535 
-0.000202 0.001640 0.001555 
0.000000 0.001584 0.000000 
0.000000 0.001714 0.000000 
0.000000 0.001748 -0.000000 
0.000000 0.001714 -0.000000 
0.000000 0.001584 -0.000000 
-0.000202 0.001640 -0.001555 
-0.000096 0.001769 -0.001535 
0.000000 0.001805 -0.001528 
0.000096 0.001769 -0.001535 
0.000202 0.001640 -0.001555 
-0.000387 0.001809 -0.003262 
-0.000183 0.001939 -0.003239 
0.000000 0.001977 -0.003236 
0.000183 0.001939 -0.003239 
0.000387 0.001809 -0.003262 
0.000394 0.002467 0.003845 
0.000191 0.002603 0.003833 
-0.000000 0.002645 0.003829 
-0.000191 0.002603 0.003833 
-0.000394 0.002467 0.003844 
0.000205 0.002302 0.001844 
0.000100 0.002437 0.001834 
-0.000000 0.002477 0.001828 
-0.000100 0.002437 0.001834 
-0.000205 0.002302 0.001844 
0.000000 0.002246 0.000000 
0.000000 0.002383 0.000000 
0.000000 0.002421 -0.000000 
0.000000 0.002383 -0.000000 
0.000000 0.002246 -0.000000 
-0.000205 0.002302 -0.001844 
-0.000100 0.002437 -0.001834 
0.000000 0.002477 -0.001828 
0.000100 0.002437 -0.001834 
0.000205 0.002302 -0.001844 
-0.000394 0.002467 -0.003844 
-0.000191 0.002603 -0.003833 
0.000000 0.002645 -0.003829 
0.000191 0.002603 -0.003833 
0.000394 0.002467 -0.003845 
0.000394 0.003224 0.004413 
0.000194 0.003362 0.004409 
-0.000000 0.003406 0.004406 
-0.000194 0.003362 0.004409 
-0.000394 0.003224 0.004413 
0.000204 0.003063 0.002127 
0.000101 0.003202 0.002123 
-0.000000 0.003244 0.002119 
-0.000101 0.003202 0.002123 
-0.000204 0.003063 0.002126 
0.000000 0.003009 0.000000 
0.000000 0.003149 0.000000 
0.000000 0.003190 -0.000000 
0.000000 0.003149 -0.000000 
0.000000 0.003009 -0.000000 
-0.000204 0.003063 -0.002126 
-0.000100 0.003202 -0.002123 
0.000000 0.003244 -0.002119 
0.000101 0.003202 -0.002123 
0.000204 0.003063 -0.002127 
-0.000394 0.003224 -0.004413 
-0.000194 0.003362 -0.004409 
0.000000 0.003406 -0.004406 
0.000194 0.003362 -0.004409 
0.000394 0.003224 -0.004413 
0.000390 0.004077 0.004966 
0.000193 0.004216 0.004969 
-0.000000 0.004261 0.004966 
-0.000194 0.004216 0.004969 
-0.000390 0.004077 0.004966 
0.000201 0.003921 0.002402 
0.000100 0.004061 0.002403 
-0.000000 0.004104 0.002401 
-0.000100 0.004061 0.002403 
-0.000201 0.003921 0.002402 
0.000000 0.003868 0.000000 
0.000000 0.004010 0.000000 
0.000000 0.004052 -0.000000 
0.000000 0.004010 -0.000000 
0.000000 0.003868 -0.000000 
-0.000201 0.003921 -0.002402 
-0.000100 0.004061 -0.002403 
0.000000 0.004104 -0.002401 
0.000100 0.004061 -0.002403 
0.000201 0.003921 -0.002402 
-0.000390 0.004077 -0.004966 
-0.000193 0.004216 -0.004969 
0.000000 0.004261 -0.004966 
0.000194 0.004216 -0.004969 
0.000390 0.004077 -0.004966 
0.000383 0.005023 0.005503 
0.000191 0.005161 0.005511 
-0.000000 0.005207 0.005509 
-0.000191 0.005161 0.005511 
-0.000383 0.005023 0.005503 
0.000197 0.004872 0.002669 
0.000098 0.005011 0.002675 
0.000000 0.005055 0.002674 
-0.000098 0.005011 0.002674 
-0.000197 0.004872 0.002669 
0.000000 0.004821 0.000000 
0.000000 0.004961 0.000000 
0.000000 0.005005 -0.000000 
0.000000 0.004961 -0.000000 
0.000000 0.004821 -0.000000 
-0.000197 0.004872 -0.002669 
-0.000098 0.005011 -0.002674 
0.000000 0.005055 -0.002674 
0.000098 0.005011 -0.002675 
0.000197 0.004872 -0.002669 
-0.000383 0.005023 -0.005503 
-0.000191 0.005161 -0.005511 
0.000000 0.005207 -0.005509 
0.000191 0.005161 -0.005511 
0.000383 0.005023 -0.005503 
0.000373 0.006059 0.006025 
0.000187 0.006195 0.006036 
-0.000000 0.006240 0.006035 
-0.000187 0.006195 0.006036 
-0.000373 0.006059 0.006025 
0.000192 0.005913 0.002929 
0.000095 0.006050 0.002937 
0.000000 0.006094 0.002938 
-0.000095 0.006050 0.002937 
-0.000192 0.005913 0.002929 
0.000000 0.005864 0.000000 
0.000000 0.006002 0.000000 
0.000000 0.006045 -0.000000 
0.000000 0.006002 -0.000000 
0.000000 0.005864 -0.000000 
-0.000192 0.005913 -0.002929 
-0.000095 0.006050 -0.002937 
0.000000 0.006094 -0.002938 
0.000095 0.006050 -0.002937 
0.000192 0.005913 -0.002929 
-0.000373 0.006059 -0.006025 
-0.000187 0.006195 -0.006036 
0.000000 0.006240 -0.006035 
0.000187 0.006195 -0.006036 
0.000373 0.006059 -0.006025 
0.000363 0.007182 0.006531 
0.000182 0.007315 0.006544 
-0.000000 0.007360 0.006544 
-0.000182 0.007315 0.006544 
-0.000363 0.007182 0.006531 
0.000186 0.007041 0.003181 
0.000092 0.007175 0.003191 
0.000000 0.007218 0.003192 
-0.000092 0.007175 0.003191 
-0.000186 0.007041 0.003181 
0.000000 0.006993 0.000000 
0.000000 0.007128 0.000000 
0.000000 0.007171 -0.000000 
0.000000 0.007128 -0.000000 
0.000000 0.006993 -0.000000 
-0.000186 0.007041 -0.003181 
-0.000092 0.007175 -0.003191 
0.000000 0.007218 -0.003192 
0.000092 0.007175 -0.003191 
0.000186 0.007041 -0.003181 
-0.000363 0.007182 -0.006531 
-0.000182 0.007315 -0.006544 
0.000000 0.007360 -0.006544 
0.000182 0.007315 -0.006544 
0.000363 0.007182 -0.006531 
0.000351 0.008389 0.007020 
0.000176 0.008518 0.007035 
-0.000000 0.008562 0.007035 
-0.000176 0.008518 0.007034 
-0.000351 0.008389 0.007020 
0.000180 0.008252 0.003426 
0.000089 0.008383 0.003437 
0.000000 0.008426 0.003439 
-0.000089 0.008383 0.003437 
-0.000180 0.008252 0.003426 
0.000000 0.008206 0.000000 
0.000000 0.008338 0.000000 
0.000000 0.008380 -0.000000 
0.000000 0.008338 -0.000000 
0.000000 0.008206 -0.000000 
-0.000180 0.008252 -0.003426 
-0.000089 0.008383 -0.003437 
0.000000 0.008426 -0.003439 
0.000089 0.008383 -0.003437 
0.000180 0.008252 -0.003426 
-0.000351 0.008389 -0.007020 
-0.000176 0.008518 -0.007034 
0.000000 0.008562 -0.007035 
0.000176 0.008518 -0.007035 
0.000351 0.008389 -0.007020 
0.000340 0.009676 0.007493 
0.000170 0.009802 0.007508 
-0.000000 0.009844 0.007509 
-0.000170 0.009802 0.007508 
-0.000340 0.009676 0.007493 
0.000173 0.009544 0.003662 
0.000086 0.009671 0.003673 
0.000000 0.009713 0.003676 
-0.000086 0.009671 0.003673 
-0.000173 0.009544 0.003662 
0.000000 0.009500 0.000000 
0.000000 0.009628 0.000000 
0.000000 0.009669 -0.000000 
0.000000 0.009628 -0.000000 
0.000000 0.009500 -0.000000 
-0.000173 0.009544 -0.003662 
-0.000086 0.009671 -0.003673 
0.000000 0.009713 -0.003676 
0.000086 0.009671 -0.003673 
0.000174 0.009544 -0.003662 
-0.000340 0.009676 -0.007493 
-0.000170 0.009802 -0.007508 
0.000000 0.009844 -0.007509 
0.000171 0.009802 -0.007508 
0.000340 0.009676 -0.007493 
0.000328 0.011042 0.007949 
0.000164 0.011163 0.007965 
-0.000000 0.011204 0.007966 
-0.000164 0.011163 0.007965 
-0.000328 0.011042 0.007949 
0.000167 0.010914 0.003890 
0.000083 0.011037 0.003902 
0.000000 0.011077 0.003904 
-0.000083 0.011037 0.003902 
-0.000167 0.010914 0.003889 
0.000000 0.010872 0.000000 
0.000000 0.010995 0.000000 
0.000000 0.011035 -0.000000 
0.000000 0.010995 -0.000000 
0.000000 0.010872 -0.000000 
-0.000167 0.010914 -0.003889 
-0.000083 0.011037 -0.003902 
0.000000 0.011077 -0.003904 
0.000083 0.011037 -0.003902 
0.000167 0.010914 -0.003890 
-0.000327 0.011042 -0.007949 
-0.000164 0.011163 -0.007965 
0.000000 0.011204 -0.007966 
0.000165 0.011163 -0.007965 
0.000328 0.011042 -0.007949 
0.000315 0.012482 0.008389 
0.000158 0.012598 0.008405 
-0.000000 0.012638 0.008406 
-0.000158 0.012598 0.008405 
-0.000315 0.012482 0.008389 
0.000161 0.012359 0.004109 
0.000080 0.012477 0.004122 
0.000000 0.012516 0.004124 
-0.000080 0.012477 0.004122 
-0.000161 0.012359 0.004109 
0.000000 0.012318 0.000000 
0.000000 0.012437 0.000000 
0.000000 0.012476 -0.000000 
0.000000 0.012437 -0.000000 
0.000000 0.012318 -0.000000 
-0.000161 0.012359 -0.004109 
-0.000080 0.012477 -0.004122 
0.000000 0.012516 -0.004124 
0.000080 0.012477 -0.004122 
0.000161 0.012359 -0.004109 
-0.000315 0.012482 -0.008389 
-0.000158 0.012598 -0.008405 
0.000000 0.012638 -0.008406 
0.000158 0.012598 -0.008405 
0.000315 0.012482 -0.008389 
0.000303 0.013994 0.008811 
0.000152 0.014106 0.008827 
-0.000000 0.014144 0.008829 
-0.000152 0.014106 0.008827 
-0.000303 0.013994 0.008811 
0.000154 0.013876 0.004320 
0.000077 0.013990 0.004333 
0.000000 0.014027 0.004336 
-0.000077 0.013990 0.004333 
-0.000154 0.013876 0.004320 
0.000000 0.013837 0.000000 
0.000000 0.013951 0.000000 
0.000000 0.013989 -0.000000 
0.000000 0.013951 -0.000000 
0.000000 0.013837 -0.000000 
-0.000154 0.013876 -0.004320 
-0.000077 0.013990 -0.004333 
0.000000 0.014027 -0.004336 
0.000077 0.013990 -0.004333 
0.000155 0.013876 -0.004320 
-0.000303 0.013994 -0.008811 
-0.000152 0.014106 -0.008827 
0.000000 0.014144 -0.008829 
0.000152 0.014106 -0.008827 
0.000303 0.013994 -0.008811 
0.000291 0.015575 0.009217 
0.000146 0.015683 0.009233 
-0.000000 0.015719 0.009235 
-0.000146 0.015683 0.009233 
-0.000291 0.015575 0.009217 
0.000148 0.015462 0.004523 
0.000074 0.015571 0.004536 
0.000000 0.015607 0.004539 
-0.000074 0.015571 0.004536 
-0.000148 0.015462 0.004523 
0.000000 0.015424 0.000000 
0.000000 0.015534 0.000000 
0.000000 0.015570 -0.000000 
0.000000 0.015534 -0.000000 
0.000000 0.015424 -0.000000 
-0.000148 0.015462 -0.004523 
-0.000074 0.015571 -0.004536 
0.000000 0.015607 -0.004539 
0.000074 0.015571 -0.004536 
0.000148 0.015462 -0.004523 
-0.000290 0.015575 -0.009217 
-0.000146 0.015683 -0.009233 
0.000000 0.015719 -0.009235 
0.000146 0.015683 -0.009233 
0.000291 0.015575 -0.009217 
0.000278 0.017222 0.009605 
0.000140 0.017326 0.009622 
0.000000 0.017361 0.009623 
-0.000140 0.017326 0.009622 
-0.000278 0.017222 0.009605 
0.000142 0.017115 0.004717 
0.000070 0.017219 0.004730 
0.000000 0.017254 0.004733 
-0.000070 0.017219 0.004730 
-0.000142 0.017114 0.004717 
0.000000 0.017078 0.000000 
0.000000 0.017184 0.000000 
0.000000 0.017218 -0.000000 
0.000000 0.017183 -0.000000 
0.000000 0.017078 -0.000000 
-0.000142 0.017115 -0.004717 
-0.000070 0.017219 -0.004730 
0.000000 0.017254 -0.004733 
0.000070 0.017219 -0.004730 
0.000142 0.017114 -0.004717 
-0.000278 0.017222 -0.009605 
-0.000140 0.017326 -0.009622 
0.000000 0.017361 -0.009623 
0.000140 0.017326 -0.009622 
0.000278 0.017222 -0.009605 
0.000266 0.018933 0.009977 
0.000133 0.019032 0.009993 
0.000000 0.019065 0.009995 
-0.000133 0.019032 0.009993 
-0.000266 0.018933 0.009977 
0.000135 0.018830 0.004903 
0.000067 0.018930 0.004916 
0.000000 0.018963 0.004919 
-0.000067 0.018930 0.004916 
-0.000135 0.018830 0.004902 
0.000000 0.018796 0.000000 
0.000000 0.018896 0.000000 
0.000000 0.018929 -0.000000 
0.000000 0.018896 -0.000000 
0.000000 0.018796 -0.000000 
-0.000135 0.018830 -0.004902 
-0.000067 0.018930 -0.004916 
0.000000 0.018963 -0.004919 
0.000067 0.018930 -0.004916 
0.000135 0.018830 -0.004903 
-0.000265 0.018933 -0.009977 
-0.000133 0.019032 -0.009993 
0.000000 0.019065 -0.009995 
0.000134 0.019032 -0.009993 
0.000266 0.018933 -0.009977 
0.000253 0.020705 0.010331 
0.000127 0.020799 0.010348 
0.000000 0.020831 0.010349 
-0.000127 0.020799 0.010348 
-0.000253 0.020705 0.010331 
0.000129 0.020607 0.005080 
0.000064 0.020702 0.005093 
0.000000 0.020733 0.005096 
-0.000064 0.020702 0.005093 
-0.000129 0.020606 0.005080 
0.000000 0.020574 0.000000 
0.000000 0.020669 0.000000 
0.000000 0.020701 -0.000000 
0.000000 0.020669 -0.000000 
0.000000 0.020573 -0.000000 
-0.000129 0.020607 -0.005080 
-0.000064 0.020702 -0.005093 
0.000000 0.020733 -0.005096 
0.000064 0.020702 -0.005093 
0.000129 0.020606 -0.005080 
-0.000253 0.020705 -0.010331 
-0.000127 0.020799 -0.010348 
0.000000 0.020831 -0.010349 
0.000127 0.020799 -0.010348 
0.000253 0.020705 -0.010331 
0.000241 0.022534 0.010669 
0.000121 0.022623 0.010685 
0.000000 0.022654 0.010687 
-0.000121 0.022623 0.010685 
-0.000241 0.022534 0.010669 
0.000123 0.022441 0.005248 
0.000061 0.022531 0.005261 
0.000000 0.022561 0.005265 
-0.000061 0.022531 0.005261 
-0.000123 0.022441 0.005248 
0.000000 0.022409 0.000000 
0.000000 0.022500 0.000000 
0.000000 0.022530 -0.000000 
0.000000 0.022500 -0.000000 
0.000000 0.022409 -0.000000 
-0.000122 0.022441 -0.005248 
-0.000061 0.022531 -0.005261 
0.000000 0.022561 -0.005265 
0.000061 0.022531 -0.005261 
0.000123 0.022441 -0.005248 
-0.000241 0.022534 -0.010669 
-0.000121 0.022623 -0.010685 
0.000000 0.022654 -0.010687 
0.000121 0.022623 -0.010685 
0.000241 0.022534 -0.010669 
0.000228 0.024418 0.010989 
0.000115 0.024503 0.011006 
0.000000 0.024532 0.011007 
-0.000115 0.024503 0.011006 
-0.000228 0.024418 0.010989 
0.000116 0.024330 0.005408 
0.000058 0.024415 0.005422 
0.000000 0.024444 0.005425 
-0.000058 0.024415 0.005422 
-0.000116 0.024329 0.005408 
0.000000 0.024300 0.000000 
0.000000 0.024386 0.000000 
0.000000 0.024415 -0.000000 
0.000000 0.024386 -0.000000 
0.000000 0.024300 -0.000000 
-0.000116 0.024330 -0.005408 
-0.000058 0.024415 -0.005422 
0.000000 0.024444 -0.005425 
0.000058 0.024415 -0.005422 
0.000116 0.024329 -0.005408 
-0.000228 0.024418 -0.010989 
-0.000114 0.024503 -0.011006 
0.000000 0.024532 -0.011007 
0.000115 0.024503 -0.011006 
0.000228 0.024418 -0.010989 
0.000216 0.026354 0.011292 
0.000108 0.026434 0.011309 
0.000000 0.026462 0.011311 
-0.000108 0.026434 0.011309 
-0.000216 0.026354 0.011292 
0.000110 0.026271 0.005560 
0.000055 0.026352 0.005573 
0.000000 0.026379 0.005576 
-0.000054 0.026351 0.005573 
-0.000110 0.026271 0.005560 
0.000000 0.026243 0.000000 
0.000000 0.026324 0.000000 
0.000000 0.026351 -0.000000 
0.000000 0.026324 -0.000000 
0.000000 0.026242 -0.000000 
-0.000110 0.026271 -0.005560 
-0.000054 0.026352 -0.005573 
0.000000 0.026379 -0.005576 
0.000055 0.026351 -0.005573 
0.000110 0.026271 -0.005560 
-0.000215 0.026354 -0.011292 
-0.000108 0.026434 -0.011309 
0.000000 0.026462 -0.011311 
0.000108 0.026434 -0.011309 
0.000216 0.026354 -0.011292 
0.000203 0.028340 0.011578 
0.000102 0.028415 0.011595 
0.000000 0.028441 0.011597 
-0.000102 0.028415 0.011595 
-0.000203 0.028339 0.011578 
0.000103 0.028261 0.005703 
0.000051 0.028337 0.005716 
0.000000 0.028363 0.005719 
-0.000051 0.028337 0.005716 
-0.000103 0.028261 0.005703 
0.000000 0.028234 0.000000 
0.000000 0.028311 0.000000 
0.000000 0.028337 -0.000000 
0.000000 0.028311 -0.000000 
0.000000 0.028234 -0.000000 
-0.000103 0.028261 -0.005703 
-0.000051 0.028337 -0.005716 
0.000000 0.028363 -0.005719 
0.000051 0.028337 -0.005716 
0.000104 0.028261 -0.005703 
-0.000203 0.028340 -0.011578 
-0.000102 0.028415 -0.011595 
0.000000 0.028441 -0.011597 
0.000102 0.028415 -0.011595 
0.000203 0.028339 -0.011578 
0.000191 0.030371 0.011848 
0.000096 0.030442 0.011864 
0.000000 0.030466 0.011866 
-0.000096 0.030442 0.011864 
-0.000190 0.030371 0.011847 
0.000097 0.030297 0.005837 
0.000048 0.030369 0.005851 
0.000000 0.030393 0.005854 
-0.000048 0.030369 0.005851 
-0.000097 0.030297 0.005837 
0.000000 0.030273 0.000000 
0.000000 0.030345 0.000000 
0.000000 0.030369 -0.000000 
0.000000 0.030345 -0.000000 
0.000000 0.030273 -0.000000 
-0.000097 0.030297 -0.005837 
-0.000048 0.030369 -0.005851 
0.000000 0.030393 -0.005854 
0.000048 0.030369 -0.005851 
0.000097 0.030297 -0.005837 
-0.000190 0.030371 -0.011847 
-0.000096 0.030442 -0.011864 
0.000000 0.030466 -0.011866 
0.000096 0.030442 -0.011864 
0.000191 0.030371 -0.011848 
0.000178 0.032447 0.012099 
0.000089 0.032513 0.012116 
0.000000 0.032535 0.012118 
-0.000089 0.032513 0.012116 
-0.000178 0.032446 0.012099 
0.000091 0.032378 0.005963 
0.000045 0.032444 0.005976 
0.000000 0.032467 0.005980 
-0.000045 0.032444 0.005976 
-0.000091 0.032377 0.005963 
0.000000 0.032354 0.000000 
0.000000 0.032422 0.000000 
0.000000 0.032444 -0.000000 
0.000000 0.032422 -0.000000 
0.000000 0.032354 -0.000000 
-0.000090 0.032378 -0.005963 
-0.000045 0.032444 -0.005976 
0.000000 0.032467 -0.005980 
0.000045 0.032444 -0.005976 
0.000091 0.032377 -0.005963 
-0.000178 0.032447 -0.012099 
-0.000089 0.032513 -0.012116 
0.000000 0.032535 -0.012118 
0.000090 0.032513 -0.012116 
0.000178 0.032446 -0.012099 
0.000165 0.034562 0.012334 
0.000083 0.034624 0.012351 
0.000000 0.034645 0.012352 
-0.000083 0.034624 0.012351 
-0.000165 0.034562 0.012334 
0.000084 0.034498 0.006080 
0.000042 0.034560 0.006094 
0.000000 0.034581 0.006097 
-0.000042 0.034560 0.006094 
-0.000084 0.034498 0.006080 
0.000000 0.034477 0.000000 
0.000000 0.034539 0.000000 
0.000000 0.034560 -0.000000 
0.000000 0.034539 -0.000000 