<?xml version="1.0"?>
<VTKFile type="UnstructuredGrid"  version="0.1"  >
<UnstructuredGrid>
<Piece  NumberOfPoints="1025" NumberOfCells="640">
<Points>
<DataArray  type="Float32"  NumberOfComponents="3"  format="ascii">
0.000000 0.000000 0.000000 
0.750000 0.000000 0.000000 
1.500000 0.000000 0.000000 
2.250000 0.000000 0.000000 
3.000000 0.000000 0.000000 
0.000000 0.750000 0.000000 
0.750000 0.750000 0.000000 
1.500000 0.750000 0.000000 
2.250000 0.750000 0.000000 
3.000000 0.750000 0.000000 
0.000000 1.500000 0.000000 
0.750000 1.500000 0.000000 
1.500000 1.500000 0.000000 
2.250000 1.500000 0.000000 
3.000000 1.500000 0.000000 
0.000000 2.250000 0.000000 
0.750000 2.250000 0.000000 
1.500000 2.250000 0.000000 
2.250000 2.250000 0.000000 
3.000000 2.250000 0.000000 
0.000000 3.000000 0.000000 
0.750000 3.000000 0.000000 
1.500000 3.000000 0.000000 
2.250000 3.000000 0.000000 
3.000000 3.000000 0.000000 
0.000000 0.000000 0.250000 
0.750000 0.000000 0.250000 
1.500000 0.000000 0.250000 
2.250000 0.000000 0.250000 
3.000000 0.000000 0.250000 
0.000000 0.750000 0.250000 
0.750000 0.750000 0.250000 
1.500000 0.750000 0.250000 
2.250000 0.750000 0.250000 
3.000000 0.750000 0.250000 
0.000000 1.500000 0.250000 
0.750000 1.500000 0.250000 
1.500000 1.500000 0.250000 
2.250000 1.500000 0.250000 
3.000000 1.500000 0.250000 
0.000000 2.250000 0.250000 
0.750000 2.250000 0.250000 
1.500000 2.250000 0.250000 
2.250000 2.250000 0.250000 
3.000000 2.250000 0.250000 
0.000000 3.000000 0.250000 
0.750000 3.000000 0.250000 
1.500000 3.000000 0.250000 
2.250000 3.000000 0.250000 
3.000000 3.000000 0.250000 
0.000000 0.000000 0.500000 
0.750000 0.000000 0.500000 
1.500000 0.000000 0.500000 
2.250000 0.000000 0.500000 
3.000000 0.000000 0.500000 
0.000000 0.750000 0.500000 
0.750000 0.750000 0.500000 
1.500000 0.750000 0.500000 
2.250000 0.750000 0.500000 
3.000000 0.750000 0.500000 
0.000000 1.500000 0.500000 
0.750000 1.500000 0.500000 
1.500000 1.500000 0.500000 
2.250000 1.500000 0.500000 
3.000000 1.500000 0.500000 
0.000000 2.250000 0.500000 
0.750000 2.250000 0.500000 
1.500000 2.250000 0.500000 
2.250000 2.250000 0.500000 
3.000000 2.250000 0.500000 
0.000000 3.000000 0.500000 
0.750000 3.000000 0.500000 
1.500000 3.000000 0.500000 
2.250000 3.000000 0.500000 
3.000000 3.000000 0.500000 
0.000000 0.000000 0.750000 
0.750000 0.000000 0.750000 
1.500000 0.000000 0.750000 
2.250000 0.000000 0.750000 
3.000000 0.000000 0.750000 
0.000000 0.750000 0.750000 
0.750000 0.750000 0.750000 
1.500000 0.750000 0.750000 
2.250000 0.750000 0.750000 
3.000000 0.750000 0.750000 
0.000000 1.500000 0.750000 
0.750000 1.500000 0.750000 
1.500000 1.500000 0.750000 
2.250000 1.500000 0.750000 
3.000000 1.500000 0.750000 
0.000000 2.250000 0.750000 
0.750000 2.250000 0.750000 
1.500000 2.250000 0.750000 
2.250000 2.250000 0.750000 
3.000000 2.250000 0.750000 
0.000000 3.000000 0.750000 
0.750000 3.000000 0.750000 
1.500000 3.000000 0.750000 
2.250000 3.000000 0.750000 
3.000000 3.000000 0.750000 
0.000000 0.000000 1.000000 
0.750000 0.000000 1.000000 
1.500000 0.000000 1.000000 
2.250000 0.000000 1.000000 
3.000000 0.000000 1.000000 
0.000000 0.750000 1.000000 
0.750000 0.750000 1.000000 
1.500000 0.750000 1.000000 
2.250000 0.750000 1.000000 
3.000000 0.750000 1.000000 
0.000000 1.500000 1.000000 
0.750000 1.500000 1.000000 
1.500000 1.500000 1.000000 
2.250000 1.500000 1.000000 
3.000000 1.500000 1.000000 
0.000000 2.250000 1.000000 
0.750000 2.250000 1.000000 
1.500000 2.250000 1.000000 
2.250000 2.250000 1.000000 
3.000000 2.250000 1.000000 
0.000000 3.000000 1.000000 
0.750000 3.000000 1.000000 
1.500000 3.000000 1.000000 
2.250000 3.000000 1.000000 
3.000000 3.000000 1.000000 
0.000000 0.000000 1.250000 
0.750000 0.000000 1.250000 
1.500000 0.000000 1.250000 
2.250000 0.000000 1.250000 
3.000000 0.000000 1.250000 
0.000000 0.750000 1.250000 
0.750000 0.750000 1.250000 
1.500000 0.750000 1.250000 
2.250000 0.750000 1.250000 
3.000000 0.750000 1.250000 
0.000000 1.500000 1.250000 
0.750000 1.500000 1.250000 
1.500000 1.500000 1.250000 
2.250000 1.500000 1.250000 
3.000000 1.500000 1.250000 
0.000000 2.250000 1.250000 
0.750000 2.250000 1.250000 
1.500000 2.250000 1.250000 
2.250000 2.250000 1.250000 
3.000000 2.250000 1.250000 
0.000000 3.000000 1.250000 
0.750000 3.000000 1.250000 
1.500000 3.000000 1.250000 
2.250000 3.000000 1.250000 
3.000000 3.000000 1.250000 
0.000000 0.000000 1.500000 
0.750000 0.000000 1.500000 
1.500000 0.000000 1.500000 
2.250000 0.000000 1.500000 
3.000000 0.000000 1.500000 
0.000000 0.750000 1.500000 
0.750000 0.750000 1.500000 
1.500000 0.750000 1.500000 
2.250000 0.750000 1.500000 
3.000000 0.750000 1.500000 
0.000000 1.500000 1.500000 
0.750000 1.500000 1.500000 
1.500000 1.500000 1.500000 
2.250000 1.500000 1.500000 
3.000000 1.500000 1.500000 
0.000000 2.250000 1.500000 
0.750000 2.250000 1.500000 
1.500000 2.250000 1.500000 
2.250000 2.250000 1.500000 
3.000000 2.250000 1.500000 
0.000000 3.000000 1.500000 
0.750000 3.000000 1.500000 
1.500000 3.000000 1.500000 
2.250000 3.000000 1.500000 
3.000000 3.000000 1.500000 
0.000000 0.000000 1.750000 
0.750000 0.000000 1.750000 
1.500000 0.000000 1.750000 
2.250000 0.000000 1.750000 
3.000000 0.000000 1.750000 
0.000000 0.750000 1.750000 
0.750000 0.750000 1.750000 
1.500000 0.750000 1.750000 
2.250000 0.750000 1.750000 
3.000000 0.750000 1.750000 
0.000000 1.500000 1.750000 
0.750000 1.500000 1.750000 
1.500000 1.500000 1.750000 
2.250000 1.500000 1.750000 
3.000000 1.500000 1.750000 
0.000000 2.250000 1.750000 
0.750000 2.250000 1.750000 
1.500000 2.250000 1.750000 
2.250000 2.250000 1.750000 
3.000000 2.250000 1.750000 
0.000000 3.000000 1.750000 
0.750000 3.000000 1.750000 
1.500000 3.000000 1.750000 
2.250000 3.000000 1.750000 
3.000000 3.000000 1.750000 
0.000000 0.000000 2.000000 
0.750000 0.000000 2.000000 
1.500000 0.000000 2.000000 
2.250000 0.000000 2.000000 
3.000000 0.000000 2.000000 
0.000000 0.750000 2.000000 
0.750000 0.750000 2.000000 
1.500000 0.750000 2.000000 
2.250000 0.750000 2.000000 
3.000000 0.750000 2.000000 
0.000000 1.500000 2.000000 
0.750000 1.500000 2.000000 
1.500000 1.500000 2.000000 
2.250000 1.500000 2.000000 
3.000000 1.500000 2.000000 
0.000000 2.250000 2.000000 
0.750000 2.250000 2.000000 
1.500000 2.250000 2.000000 
2.250000 2.250000 2.000000 
3.000000 2.250000 2.000000 
0.000000 3.000000 2.000000 
0.750000 3.000000 2.000000 
1.500000 3.000000 2.000000 
2.250000 3.000000 2.000000 
3.000000 3.000000 2.000000 
0.000000 0.000000 2.250000 
0.750000 0.000000 2.250000 
1.500000 0.000000 2.250000 
2.250000 0.000000 2.250000 
3.000000 0.000000 2.250000 
0.000000 0.750000 2.250000 
0.750000 0.750000 2.250000 
1.500000 0.750000 2.250000 
2.250000 0.750000 2.250000 
3.000000 0.750000 2.250000 
0.000000 1.500000 2.250000 
0.750000 1.500000 2.250000 
1.500000 1.500000 2.250000 
2.250000 1.500000 2.250000 
3.000000 1.500000 2.250000 
0.000000 2.250000 2.250000 
0.750000 2.250000 2.250000 
1.500000 2.250000 2.250000 
2.250000 2.250000 2.250000 
3.000000 2.250000 2.250000 
0.000000 3.000000 2.250000 
0.750000 3.000000 2.250000 
1.500000 3.000000 2.250000 
2.250000 3.000000 2.250000 
3.000000 3.000000 2.250000 
0.000000 0.000000 2.500000 
0.750000 0.000000 2.500000 
1.500000 0.000000 2.500000 
2.250000 0.000000 2.500000 
3.000000 0.000000 2.500000 
0.000000 0.750000 2.500000 
0.750000 0.750000 2.500000 
1.500000 0.750000 2.500000 
2.250000 0.750000 2.500000 
3.000000 0.750000 2.500000 
0.000000 1.500000 2.500000 
0.750000 1.500000 2.500000 
1.500000 1.500000 2.500000 
2.250000 1.500000 2.500000 
3.000000 1.500000 2.500000 
0.000000 2.250000 2.500000 
0.750000 2.250000 2.500000 
1.500000 2.250000 2.500000 
2.250000 2.250000 2.500000 
3.000000 2.250000 2.500000 
0.000000 3.000000 2.500000 
0.750000 3.000000 2.500000 
1.500000 3.000000 2.500000 
2.250000 3.000000 2.500000 
3.000000 3.000000 2.500000 
0.000000 0.000000 2.750000 
0.750000 0.000000 2.750000 
1.500000 0.000000 2.750000 
2.250000 0.000000 2.750000 
3.000000 0.000000 2.750000 
0.000000 0.750000 2.750000 
0.750000 0.750000 2.750000 
1.500000 0.750000 2.750000 
2.250000 0.750000 2.750000 
3.000000 0.750000 2.750000 
0.000000 1.500000 2.750000 
0.750000 1.500000 2.750000 
1.500000 1.500000 2.750000 
2.250000 1.500000 2.750000 
3.000000 1.500000 2.750000 
0.000000 2.250000 2.750000 
0.750000 2.250000 2.750000 
1.500000 2.250000 2.750000 
2.250000 2.250000 2.750000 
3.000000 2.250000 2.750000 
0.000000 3.000000 2.750000 
0.750000 3.000000 2.750000 
1.500000 3.000000 2.750000 
2.250000 3.000000 2.750000 
3.000000 3.000000 2.750000 
0.000000 0.000000 3.000000 
0.750000 0.000000 3.000000 
1.500000 0.000000 3.000000 
2.250000 0.000000 3.000000 
3.000000 0.000000 3.000000 
0.000000 0.750000 3.000000 
0.750000 0.750000 3.000000 
1.500000 0.750000 3.000000 
2.250000 0.750000 3.000000 
3.000000 0.750000 3.000000 
0.000000 1.500000 3.000000 
0.750000 1.500000 3.000000 
1.500000 1.500000 3.000000 
2.250000 1.500000 3.000000 
3.000000 1.500000 3.000000 
0.000000 2.250000 3.000000 
0.750000 2.250000 3.000000 
1.500000 2.250000 3.000000 
2.250000 2.250000 3.000000 
3.000000 2.250000 3.000000 
0.000000 3.000000 3.000000 
0.750000 3.000000 3.000000 
1.500000 3.000000 3.000000 
2.250000 3.000000 3.000000 
3.000000 3.000000 3.000000 
0.000000 0.000000 3.250000 
0.750000 0.000000 3.250000 
1.500000 0.000000 3.250000 
2.250000 0.000000 3.250000 
3.000000 0.000000 3.250000 
0.000000 0.750000 3.250000 
0.750000 0.750000 3.250000 
1.500000 0.750000 3.250000 
2.250000 0.750000 3.250000 
3.000000 0.750000 3.250000 
0.000000 1.500000 3.250000 
0.750000 1.500000 3.250000 
1.500000 1.500000 3.250000 
2.250000 1.500000 3.250000 
3.000000 1.500000 3.250000 
0.000000 2.250000 3.250000 
0.750000 2.250000 3.250000 
1.500000 2.250000 3.250000 
2.250000 2.250000 3.250000 
3.000000 2.250000 3.250000 
0.000000 3.000000 3.250000 
0.750000 3.000000 3.250000 
1.500000 3.000000 3.250000 
2.250000 3.000000 3.250000 
[...]
<PointData  Scalars="u">
<DataArray  type="Float32"  Name="VectorField1"  NumberOfComponents="3" format="ascii">
0.000000 0.000000 0.000000 
0.000000 0.000000 0.000000 
0.000000 0.000000 0.000000 
0.000000 0.000000 0.000000 
0.000000 0.000000 0.000000 
0.000000 0.000000 0.000000 
0.000000 0.000000 0.000000 
0.000000 0.000000 0.000000 
0.000000 0.000000 0.000000 
0.000000 0.000000 0.000000 
0.000000 0.000000 0.000000 
0.000000 0.000000 0.000000 
0.000000 0.000000 0.000000 
0.000000 0.000000 0.000000 
0.000000 0.000000 0.000000 
0.000000 0.000000 0.000000 
0.000000 0.000000 0.000000 
0.000000 0.000000 0.000000 
0.000000 0.000000 0.000000 
0.000000 0.000000 0.000000 
0.000000 0.000000 0.000000 
0.000000 0.000000 0.000000 
0.000000 0.000000 0.000000 
0.000000 0.000000 0.000000 
0.000000 0.000000 0.000000 
0.000154 0.000163 0.000604 
0.000040 0.000197 0.000561 
-0.000000 0.000204 0.000574 
-0.000040 0.000197 0.000561 
-0.000154 0.000163 0.000604 
0.000077 0.000056 0.000266 
0.000020 0.000093 0.000232 
0.000000 0.000098 0.000235 
-0.000020 0.000093 0.000232 
-0.000077 0.000056 0.000266 
0.000000 0.000050 0.000000 
0.000000 0.000089 0.000000 
0.000000 0.000095 -0.000000 
0.000000 0.000089 -0.000000 
0.000000 0.000050 -0.000000 
-0.000077 0.000056 -0.000266 
-0.000020 0.000093 -0.000232 
0.000000 0.000098 -0.000235 
0.000020 0.000093 -0.000232 
0.000077 0.000056 -0.000266 
-0.000154 0.000163 -0.000604 
-0.000040 0.000197 -0.000561 
0.000000 0.000204 -0.000574 
0.000040 0.000197 -0.000561 
0.000154 0.000163 -0.000604 
0.000232 0.000369 0.001155 
0.000084 0.000433 0.001108 
0.000000 0.000447 0.001116 
-0.000084 0.000433 0.001108 
-0.000232 0.000369 0.001155 
0.000120 0.000237 0.000527 
0.000044 0.000301 0.000488 
0.000000 0.000313 0.000487 
-0.000044 0.000301 0.000488 
-0.000120 0.000237 0.000527 
0.000000 0.000208 0.000000 
0.000000 0.000273 0.000000 
0.000000 0.000286 -0.000000 
0.000000 0.000273 -0.000000 
0.000000 0.000208 -0.000000 
-0.000120 0.000237 -0.000527 
-0.000044 0.000301 -0.000488 
0.000000 0.000313 -0.000487 
0.000044 0.000301 -0.000488 
0.000120 0.000237 -0.000527 
-0.000232 0.000369 -0.001155 
-0.000084 0.000433 -0.001108 
0.000000 0.000447 -0.001116 
0.000084 0.000433 -0.001108 
0.000232 0.000369 -0.001155 
0.000277 0.000654 0.001677 
0.000116 0.000739 0.001638 
0.000000 0.000761 0.001640 
-0.000116 0.000739 0.001638 
-0.000277 0.000654 0.001677 
0.000145 0.000515 0.000782 
0.000061 0.000598 0.000749 
0.000000 0.000617 0.000744 
-0.000061 0.000598 0.000749 
-0.000145 0.000515 0.000782 
0.000000 0.000474 0.000000 
0.000000 0.000558 0.000000 
0.000000 0.000577 -0.000000 
0.000000 0.000558 -0.000000 
0.000000 0.000474 -0.000000 
-0.000145 0.000515 -0.000782 
-0.000061 0.000598 -0.000749 
0.000000 0.000617 -0.000744 
0.000061 0.000598 -0.000749 
0.000145 0.000515 -0.000782 
-0.000277 0.000654 -0.001677 
-0.000116 0.000739 -0.001638 
0.000000 0.000761 -0.001640 
0.000116 0.000739 -0.001638 
0.000277 0.000654 -0.001677 
0.000303 0.001024 0.002181 
0.000138 0.001122 0.002153 
0.000000 0.001150 0.002151 
-0.000138 0.001122 0.002153 
-0.000303 0.001024 0.002181 
0.000159 0.000884 0.001031 
0.000073 0.000980 0.001006 
0.000000 0.001005 0.001000 
-0.000073 0.000980 0.001006 
-0.000159 0.000884 0.001031 
0.000000 0.000839 0.000000 
0.000000 0.000936 0.000000 
0.000000 0.000960 -0.000000 
0.000000 0.000936 -0.000000 
0.000000 0.000839 -0.000000 
-0.000159 0.000884 -0.001031 
-0.000073 0.000980 -0.001006 
0.000000 0.001005 -0.001000 
0.000073 0.000980 -0.001006 
0.000159 0.000884 -0.001031 
-0.000303 0.001024 -0.002181 
-0.000138 0.001122 -0.002153 
0.000000 0.001150 -0.002151 
0.000138 0.001122 -0.002153 
0.000303 0.001024 -0.002181 
0.000317 0.001479 0.002671 
0.000150 0.001586 0.002653 
0.000000 0.001617 0.002650 
-0.000150 0.001586 0.002653 
-0.000317 0.001479 0.002671 
0.000166 0.001341 0.001274 
0.000079 0.001446 0.001258 
0.000000 0.001476 0.001252 
-0.000079 0.001446 0.001258 
-0.000166 0.001341 0.001274 
0.000000 0.001295 0.000000 
0.000000 0.001401 0.000000 
0.000000 0.001429 -0.000000 
0.000000 0.001401 -0.000000 
0.000000 0.001295 -0.000000 
-0.000166 0.001341 -0.001274 
-0.000079 0.001446 -0.001258 
0.000000 0.001476 -0.001252 
0.000079 0.001446 -0.001258 
0.000166 0.001341 -0.001274 
-0.000317 0.001479 -0.002671 
-0.000150 0.001586 -0.002653 
0.000000 0.001617 -0.002650 
0.000150 0.001586 -0.002653 
0.000317 0.001479 -0.002671 
0.000323 0.002017 0.003149 
0.000157 0.002129 0.003140 
0.000000 0.002163 0.003137 
-0.000157 0.002129 0.003140 
-0.000323 0.002017 0.003149 
0.000168 0.001882 0.001511 
0.000082 0.001993 0.001502 
0.000000 0.002026 0.001498 
-0.000082 0.001993 0.001502 
-0.000168 0.001882 0.001511 
0.000000 0.001837 0.000000 
0.000000 0.001949 0.000000 
0.000000 0.001980 -0.000000 
0.000000 0.001949 -0.000000 
0.000000 0.001837 -0.000000 
-0.000168 0.001882 -0.001511 
-0.000082 0.001993 -0.001502 
0.000000 0.002026 -0.001498 
0.000082 0.001993 -0.001502 
0.000168 0.001882 -0.001511 
-0.000323 0.002017 -0.003149 
-0.000157 0.002129 -0.003140 
0.000000 0.002163 -0.003137 
0.000157 0.002129 -0.003140 
0.000323 0.002017 -0.003149 
0.000323 0.002637 0.003615 
0.000159 0.002751 0.003612 
0.000000 0.002787 0.003610 
-0.000159 0.002751 0.003612 
-0.000323 0.002637 0.003615 
0.000168 0.002506 0.001743 
0.000082 0.002619 0.001740 
0.000000 0.002654 0.001736 
-0.000082 0.002619 0.001740 
-0.000168 0.002506 0.001743 
0.000000 0.002461 0.000000 
0.000000 0.002576 0.000000 
0.000000 0.002609 -0.000000 
0.000000 0.002576 -0.000000 
0.000000 0.002461 -0.000000 
-0.000168 0.002506 -0.001743 
-0.000082 0.002619 -0.001740 
0.000000 0.002654 -0.001736 
0.000082 0.002619 -0.001740 
0.000168 0.002506 -0.001743 
-0.000323 0.002637 -0.003615 
-0.000159 0.002751 -0.003612 
0.000000 0.002787 -0.003610 
0.000159 0.002751 -0.003612 
0.000323 0.002637 -0.003615 
0.000320 0.003336 0.004069 
0.000159 0.003450 0.004071 
0.000000 0.003487 0.004069 
-0.000159 0.003450 0.004071 
-0.000320 0.003336 0.004068 
0.000165 0.003208 0.001968 
0.000082 0.003323 0.001969 
0.000000 0.003358 0.001968 
-0.000082 0.003323 0.001969 
-0.000165 0.003208 0.001968 
0.000000 0.003165 0.000000 
0.000000 0.003281 0.000000 
0.000000 0.003315 -0.000000 
0.000000 0.003281 -0.000000 
0.000000 0.003165 -0.000000 
-0.000165 0.003208 -0.001968 
-0.000082 0.003323 -0.001969 
0.000000 0.003358 -0.001968 
0.000082 0.003323 -0.001969 
0.000165 0.003208 -0.001968 
-0.000320 0.003336 -0.004068 
-0.000159 0.003450 -0.004071 
0.000000 0.003487 -0.004069 
0.000159 0.003450 -0.004071 
0.000320 0.003336 -0.004069 
0.000314 0.004111 0.004510 
0.000157 0.004224 0.004515 
0.000000 0.004261 0.004514 
-0.000157 0.004224 0.004515 
-0.000314 0.004111 0.004509 
0.000162 0.003987 0.002188 
0.000080 0.004101 0.002192 
0.000000 0.004137 0.002191 
-0.000080 0.004101 0.002192 
-0.000161 0.003987 0.002188 
0.000000 0.003945 0.000000 
0.000000 0.004060 0.000000 
0.000000 0.004096 -0.000000 
0.000000 0.004060 -0.000000 
0.000000 0.003945 -0.000000 
-0.000161 0.003987 -0.002188 
-0.000080 0.004101 -0.002192 
0.000000 0.004137 -0.002191 
0.000080 0.004101 -0.002192 
0.000162 0.003987 -0.002188 
-0.000314 0.004111 -0.004509 
-0.000157 0.004224 -0.004515 
0.000000 0.004261 -0.004514 
0.000157 0.004224 -0.004515 
0.000314 0.004111 -0.004510 
0.000306 0.004959 0.004938 
0.000153 0.005071 0.004946 
0.000000 0.005108 0.004946 
-0.000153 0.005071 0.004946 
-0.000306 0.004959 0.004938 
0.000157 0.004839 0.002401 
0.000078 0.004952 0.002407 
0.000000 0.004988 0.002408 
-0.000078 0.004952 0.002407 
-0.000157 0.004839 0.002401 
0.000000 0.004799 0.000000 
0.000000 0.004912 0.000000 
0.000000 0.004948 -0.000000 
0.000000 0.004912 -0.000000 
0.000000 0.004799 -0.000000 
-0.000157 0.004839 -0.002401 
-0.000078 0.004952 -0.002407 
0.000000 0.004988 -0.002408 
0.000078 0.004952 -0.002407 
0.000157 0.004839 -0.002401 
-0.000306 0.004959 -0.004938 
-0.000153 0.005071 -0.004946 
0.000000 0.005108 -0.004946 
0.000153 0.005071 -0.004946 
0.000306 0.004959 -0.004938 
0.000298 0.005879 0.005353 
0.000149 0.005988 0.005363 
0.000000 0.006025 0.005363 
-0.000149 0.005988 0.005363 
-0.000298 0.005879 0.005353 
0.000153 0.005763 0.002608 
0.000076 0.005873 0.002616 
0.000000 0.005909 0.002617 
-0.000076 0.005873 0.002616 
-0.000152 0.005763 0.002608 
0.000000 0.005724 0.000000 
0.000000 0.005835 0.000000 
0.000000 0.005870 -0.000000 
0.000000 0.005835 -0.000000 
0.000000 0.005724 -0.000000 
-0.000152 0.005763 -0.002608 
-0.000076 0.005873 -0.002616 
0.000000 0.005909 -0.002617 
0.000076 0.005873 -0.002616 
0.000153 0.005763 -0.002608 
-0.000298 0.005879 -0.005353 
-0.000149 0.005988 -0.005363 
0.000000 0.006025 -0.005363 
0.000149 0.005988 -0.005363 
0.000298 0.005879 -0.005353 
0.000289 0.006868 0.005755 
0.000145 0.006974 0.005766 
0.000000 0.007010 0.005767 
-0.000145 0.006974 0.005766 
-0.000289 0.006868 0.005755 
0.000148 0.006756 0.002808 
0.000073 0.006863 0.002817 
0.000000 0.006898 0.002819 
-0.000073 0.006863 0.002817 
-0.000148 0.006756 0.002808 
0.000000 0.006718 0.000000 
0.000000 0.006826 0.000000 
0.000000 0.006861 -0.000000 
0.000000 0.006826 -0.000000 
0.000000 0.006718 -0.000000 
-0.000148 0.006756 -0.002808 
-0.000073 0.006863 -0.002817 
0.000000 0.006898 -0.002819 
0.000073 0.006863 -0.002817 
0.000148 0.006756 -0.002808 
-0.000288 0.006868 -0.005755 
-0.000145 0.006974 -0.005766 
0.000000 0.007010 -0.005767 
0.000145 0.006974 -0.005766 
0.000289 0.006868 -0.005755 
0.000279 0.007923 0.006143 
0.000140 0.008026 0.006155 
0.000000 0.008060 0.006156 
-0.000140 0.008026 0.006155 
-0.000279 0.007923 0.006143 
0.000143 0.007814 0.003002 
0.000071 0.007918 0.003012 
0.000000 0.007953 0.003014 
-0.000071 0.007918 0.003012 
-0.000142 0.007814 0.003002 
0.000000 0.007778 0.000000 
0.000000 0.007883 0.000000 
0.000000 0.007917 -0.000000 
0.000000 0.007883 -0.000000 
0.000000 0.007778 -0.000000 
-0.000142 0.007814 -0.003002 
-0.000071 0.007918 -0.003012 
0.000000 0.007953 -0.003014 
0.000071 0.007918 -0.003012 
0.000143 0.007814 -0.003002 
-0.000279 0.007923 -0.006143 
-0.000140 0.008026 -0.006155 
0.000000 0.008060 -0.006156 
0.000140 0.008026 -0.006155 
0.000279 0.007923 -0.006143 
0.000269 0.009042 0.006518 
0.000135 0.009141 0.006530 
0.000000 0.009175 0.006531 
-0.000135 0.009141 0.006530 
-0.000269 0.009042 0.006518 
0.000137 0.008937 0.003189 
0.000068 0.009038 0.003199 
0.000000 0.009071 0.003202 
-0.000068 0.009038 0.003199 
-0.000137 0.008937 0.003189 
0.000000 0.008902 0.000000 
0.000000 0.009003 0.000000 
0.000000 0.009036 -0.000000 
0.000000 0.009003 -0.000000 
0.000000 0.008902 -0.000000 
-0.000137 0.008937 -0.003189 
-0.000068 0.009038 -0.003199 
0.000000 0.009071 -0.003202 
0.000068 0.009038 -0.003199 
0.000137 0.008937 -0.003189 
-0.000269 0.009042 -0.006518 
-0.000135 0.009141 -0.006530 
0.000000 0.009175 -0.006531 
0.000135 0.009141 -0.006530 
0.000269 0.009042 -0.006518 
0.000259 0.010222 0.006879 
0.000130 0.010318 0.006892 
0.000000 0.010350 0.006893 
-0.000130 0.010318 0.006892 
-0.000259 0.010222 0.006879 
0.000132 0.010121 0.003370 
0.000066 0.010218 0.003380 
0.000000 0.010251 0.003382 
-0.000066 0.010218 0.003380 
-0.000132 0.010121 0.003370 
0.000000 0.010088 0.000000 
0.000000 0.010185 0.000000 
0.000000 0.010217 -0.000000 
0.000000 0.010185 -0.000000 
0.000000 0.010088 -0.000000 
-0.000132 0.010121 -0.003370 
-0.000066 0.010218 -0.003380 
0.000000 0.010251 -0.003382 
0.000066 0.010218 -0.003380 
0.000132 0.010121 -0.003370 
-0.000259 0.010222 -0.006879 
-0.000130 0.010318 -0.006892 
0.000000 0.010350 -0.006893 
0.000130 0.010318 -0.006892 
0.000259 0.010222 -0.006879 
0.000249 0.011461 0.007226 
0.000125 0.011554 0.007239 
0.000000 0.011585 0.007240 
-0.000125 0.011554 0.007239 
-0.000249 0.011461 0.007226 
0.000127 0.011365 0.003543 
0.000063 0.011458 0.003554 
0.000000 0.011489 0.003556 
-0.000063 0.011458 0.003554 
-0.000127 0.011365 0.003543 
0.000000 0.011332 0.000000 
0.000000 0.011427 0.000000 
0.000000 0.011457 -0.000000 
0.000000 0.011427 -0.000000 
0.000000 0.011332 -0.000000 
-0.000127 0.011365 -0.003543 
-0.000063 0.011458 -0.003554 
0.000000 0.011489 -0.003556 
0.000063 0.011458 -0.003554 
0.000127 0.011365 -0.003543 
-0.000249 0.011461 -0.007226 
-0.000125 0.011554 -0.007239 
0.000000 0.011585 -0.007240 
0.000125 0.011554 -0.007239 
0.000249 0.011461 -0.007226 
0.000239 0.012758 0.007559 
0.000120 0.012847 0.007573 
0.000000 0.012877 0.007574 
-0.000120 0.012847 0.007573 
-0.000239 0.012758 0.007559 
0.000122 0.012665 0.003710 
0.000061 0.012755 0.003720 
0.000000 0.012785 0.003723 
-0.000060 0.012755 0.003720 
-0.000122 0.012665 0.003710 
0.000000 0.012634 0.000000 
0.000000 0.012724 0.000000 
0.000000 0.012754 -0.000000 
0.000000 0.012724 -0.000000 
0.000000 0.012634 -0.000000 
-0.000122 0.012665 -0.003710 
-0.000060 0.012755 -0.003720 
0.000000 0.012785 -0.003723 
0.000061 0.012755 -0.003720 
0.000122 0.012665 -0.003710 
-0.000239 0.012758 -0.007559 
-0.000120 0.012847 -0.007573 
0.000000 0.012877 -0.007574 
0.000120 0.012847 -0.007573 
0.000239 0.012758 -0.007559 
0.000229 0.014109 0.007879 
0.000115 0.014194 0.007893 
0.000000 0.014223 0.007894 
-0.000115 0.014194 0.007892 
-0.000229 0.014109 0.007879 
0.000117 0.014020 0.003870 
0.000058 0.014106 0.003880 
0.000000 0.014135 0.003883 
-0.000058 0.014106 0.003880 
-0.000117 0.014020 0.003870 
0.000000 0.013990 0.000000 
0.000000 0.014077 0.000000 
0.000000 0.014105 -0.000000 
0.000000 0.014077 -0.000000 
0.000000 0.013990 -0.000000 
-0.000117 0.014020 -0.003870 
-0.000058 0.014106 -0.003880 
0.000000 0.014135 -0.003883 
0.000058 0.014106 -0.003880 
0.000117 0.014020 -0.003870 
-0.000229 0.014109 -0.007879 
-0.000115 0.014194 -0.007892 
0.000000 0.014223 -0.007894 
0.000115 0.014194 -0.007893 
0.000229 0.014109 -0.007879 
0.000219 0.015512 0.008185 
0.000110 0.015593 0.008198 
0.000000 0.015621 0.008200 
-0.000110 0.015593 0.008198 
-0.000219 0.015512 0.008185 
0.000111 0.015427 0.004022 
0.000055 0.015509 0.004033 
0.000000 0.015537 0.004036 
-0.000055 0.015509 0.004033 
-0.000111 0.015427 0.004022 
0.000000 0.015399 0.000000 
0.000000 0.015482 0.000000 
0.000000 0.015509 -0.000000 
0.000000 0.015482 -0.000000 
0.000000 0.015399 -0.000000 
-0.000111 0.015427 -0.004022 
-0.000055 0.015509 -0.004033 
0.000000 0.015537 -0.004036 
0.000055 0.015509 -0.004033 
0.000111 0.015427 -0.004022 
-0.000219 0.015512 -0.008185 
-0.000110 0.015593 -0.008198 
0.000000 0.015621 -0.008200 
0.000110 0.015593 -0.008198 
0.000219 0.015512 -0.008185 
0.000209 0.016965 0.008477 
0.000105 0.017043 0.008490 
0.000000 0.017069 0.008492 
-0.000105 0.017043 0.008490 
-0.000208 0.016965 0.008477 
0.000106 0.016884 0.004168 
0.000053 0.016963 0.004179 
0.000000 0.016989 0.004182 
-0.000053 0.016962 0.004179 
-0.000106 0.016884 0.004168 
0.000000 0.016857 0.000000 
0.000000 0.016936 0.000000 
0.000000 0.016962 -0.000000 
0.000000 0.016936 -0.000000 
0.000000 0.016857 -0.000000 
-0.000106 0.016884 -0.004168 
-0.000053 0.016963 -0.004179 
0.000000 0.016989 -0.004182 
0.000053 0.016962 -0.004179 
0.000106 0.016884 -0.004168 
-0.000208 0.016965 -0.008477 
-0.000105 0.017043 -0.008490 
0.000000 0.017069 -0.008492 
0.000105 0.017043 -0.008490 
0.000209 0.016965 -0.008477 
0.000198 0.018466 0.008755 
0.000100 0.018539 0.008768 
0.000000 0.018564 0.008770 
-0.000099 0.018539 0.008768 
-0.000198 0.018466 0.008755 
0.000101 0.018389 0.004307 
0.000050 0.018463 0.004318 
0.000000 0.018488 0.004320 
-0.000050 0.018463 0.004318 
-0.000101 0.018389 0.004307 
0.000000 0.018363 0.000000 
0.000000 0.018438 0.000000 
0.000000 0.018463 -0.000000 
0.000000 0.018438 -0.000000 
0.000000 0.018363 -0.000000 
-0.000101 0.018389 -0.004307 
-0.000050 0.018463 -0.004318 
0.000000 0.018488 -0.004320 
0.000050 0.018463 -0.004318 
0.000101 0.018389 -0.004307 
-0.000198 0.018466 -0.008755 
-0.000099 0.018539 -0.008768 
0.000000 0.018564 -0.008770 
0.000100 0.018539 -0.008768 
0.000198 0.018466 -0.008755 
0.000188 0.020012 0.009019 
0.000095 0.020082 0.009032 
0.000000 0.020105 0.009034 
-0.000094 0.020082 0.009032 
-0.000188 0.020012 0.009019 
0.000096 0.019939 0.004439 
0.000048 0.020009 0.004450 
0.000000 0.020033 0.004452 
-0.000047 0.020009 0.004450 
-0.000096 0.019939 0.004439 
0.000000 0.019914 0.000000 
0.000000 0.019986 0.000000 
0.000000 0.020009 -0.000000 
0.000000 0.019986 -0.000000 
0.000000 0.019914 -0.000000 
-0.000096 0.019939 -0.004439 
-0.000047 0.020009 -0.004450 
0.000000 0.020033 -0.004452 
0.000048 0.020009 -0.004450 
0.000096 0.019939 -0.004439 
-0.000188 0.020012 -0.009019 
-0.000094 0.020082 -0.009032 
0.000000 0.020105 -0.009034 
0.000095 0.020082 -0.009032 
0.000188 0.020012 -0.009019 
0.000178 0.021601 0.009269 
0.000089 0.021667 0.009282 
0.000000 0.021689 0.009284 
-0.000089 0.021667 0.009282 
-0.000178 0.021601 0.009269 
0.000091 0.021532 0.004564 
0.000045 0.021598 0.004575 
0.000000 0.021621 0.004577 
-0.000045 0.021598 0.004575 
-0.000090 0.021532 0.004564 
0.000000 0.021509 0.000000 
0.000000 0.021576 0.000000 
0.000000 0.021598 -0.000000 
0.000000 0.021576 -0.000000 
0.000000 0.021509 -0.000000 
-0.000090 0.021532 -0.004564 
-0.000045 0.021598 -0.004575 
0.000000 0.021621 -0.004577 
0.000045 0.021598 -0.004575 
0.000091 0.021532 -0.004564 
-0.000178 0.021601 -0.009269 
-0.000089 0.021667 -0.009282 
0.000000 0.021689 -0.009284 
0.000089 0.021667 -0.009282 
0.000178 0.021601 -0.009269 
0.000168 0.023230 0.009505 
0.000084 0.023292 0.009519 
0.000000 0.023314 0.009520 
-0.000084 0.023292 0.009519 
-0.000167 0.023230 0.009505 
0.000085 0.023165 0.004682 
0.000042 0.023228 0.004693 
0.000000 0.023249 0.004695 
-0.000042 0.023228 0.004693 
-0.000085 0.023165 0.004682 
0.000000 0.023143 0.000000 
0.000000 0.023207 0.000000 
0.000000 0.023228 -0.000000 
0.000000 0.023207 -0.000000 
0.000000 0.023143 -0.000000 
-0.000085 0.023165 -0.004682 
-0.000042 0.023228 -0.004693 
0.000000 0.023249 -0.004695 
0.000043 0.023228 -0.004693 
0.000085 0.023165 -0.004682 
-0.000167 0.023230 -0.009505 
-0.000084 0.023292 -0.009519 
0.000000 0.023314 -0.009520 
0.000084 0.023292 -0.009519 
0.000168 0.023230 -0.009505 
0.000157 0.024898 0.009727 
0.000079 0.024956 0.009741 
0.000000 0.024976 0.009742 
-0.000079 0.024956 0.009741 
-0.000157 0.024898 0.009727 
0.000080 0.024837 0.004793 
0.000040 0.024896 0.004804 
0.000000 0.024916 0.004806 
-0.000040 0.024896 0.004803 
-0.000080 0.024837 0.004793 
0.000000 0.024817 0.000000 
0.000000 0.024876 0.000000 
0.000000 0.024896 -0.000000 
0.000000 0.024876 -0.000000 
0.000000 0.024817 -0.000000 
-0.000080 0.024837 -0.004793 
-0.000040 0.024896 -0.004803 
0.000000 0.024916 -0.004806 
0.000040 0.024896 -0.004804 
0.000080 0.024837 -0.004793 
-0.000157 0.024898 -0.009727 
-0.000079 0.024956 -0.009741 
0.000000 0.024976 -0.009742 
0.000079 0.024956 -0.009741 
0.000157 0.024898 -0.009727 
0.000147 0.026602 0.009935 
0.000074 0.026656 0.009949 
0.000000 0.026675 0.009950 
-0.000074 0.026656 0.009949 
-0.000147 0.026602 0.009935 
0.000075 0.026545 0.004897 
0.000037 0.026600 0.004907 
0.000000 0.026618 0.004910 
-0.000037 0.026600 0.004907 
-0.000075 0.026545 0.004896 
0.000000 0.026526 0.000000 
0.000000 0.026581 0.000000 
0.000000 0.026600 -0.000000 
0.000000 0.026581 -0.000000 
0.000000 0.026526 -0.000000 
-0.000075 0.026545 -0.004897 
-0.000037 0.026600 -0.004907 
0.000000 0.026618 -0.004910 
0.000037 0.026600 -0.004907 
0.000075 0.026545 -0.004897 
-0.000147 0.026602 -0.009935 
-0.000074 0.026656 -0.009949 
0.000000 0.026675 -0.009950 
0.000074 0.026656 -0.009949 
0.000147 0.026602 -0.009935 
0.000137 0.028339 0.010129 
0.000069 0.028390 0.010143 
0.000000 0.028407 0.010144 
-0.000068 0.028390 0.010143 
-0.000137 0.028339 0.010129 
0.000070 0.028286 0.004993 
0.000035 0.028338 0.005004 
0.000000 0.028355 0.005007 
-0.000034 0.028338 0.005004 
-0.000069 0.028286 0.004993 
0.000000 0.028268 0.000000 
0.000000 0.028320 0.000000 
0.000000 0.028337 -0.000000 
0.000000 0.028320 -0.000000 
0.000000 0.028268 -0.000000 