<?xml version="1.0"?>
<VTKFile type="UnstructuredGrid"  version="0.1"  >
<UnstructuredGrid>
<Piece  NumberOfPoints="1025" NumberOfCells="640">
<Points>
<DataArray  type="Float32"  NumberOfComponents="3"  format="ascii">
0.000000 0.000000 0.000000 
0.750000 0.000000 0.000000 
1.500000 0.000000 0.000000 
2.250000 0.000000 0.000000 
3.000000 0.000000 0.000000 
0.000000 0.750000 0.000000 
0.750000 0.750000 0.000000 
1.500000 0.750000 0.000000 
2.250000 0.750000 0.000000 
3.000000 0.750000 0.000000 
0.000000 1.500000 0.000000 
0.750000 1.500000 0.000000 
1.500000 1.500000 0.000000 
2.250000 1.500000 0.000000 
3.000000 1.500000 0.000000 
0.000000 2.250000 0.000000 
0.750000 2.250000 0.000000 
1.500000 2.250000 0.000000 
2.250000 2.250000 0.000000 
3.000000 2.250000 0.000000 
0.000000 3.000000 0.000000 
0.750000 3.000000 0.000000 
1.500000 3.000000 0.000000 
2.250000 3.000000 0.000000 
3.000000 3.000000 0.000000 
0.000000 0.000000 0.250000 
0.750000 0.000000 0.250000 
1.500000 0.000000 0.250000 
2.250000 0.000000 0.250000 
3.000000 0.000000 0.250000 
0.000000 0.750000 0.250000 
0.750000 0.750000 0.250000 
1.500000 0.750000 0.250000 
2.250000 0.750000 0.250000 
3.000000 0.750000 0.250000 
0.000000 1.500000 0.250000 
0.750000 1.500000 0.250000 
1.500000 1.500000 0.250000 
2.250000 1.500000 0.250000 
3.000000 1.500000 0.250000 
0.000000 2.250000 0.250000 
0.750000 2.250000 0.250000 
1.500000 2.250000 0.250000 
2.250000 2.250000 0.250000 
3.000000 2.250000 0.250000 
0.000000 3.000000 0.250000 
0.750000 3.000000 0.250000 
1.500000 3.000000 0.250000 
2.250000 3.000000 0.250000 
3.000000 3.000000 0.250000 
0.000000 0.000000 0.500000 
0.750000 0.000000 0.500000 
1.500000 0.000000 0.500000 
2.250000 0.000000 0.500000 
3.000000 0.000000 0.500000 
0.000000 0.750000 0.500000 
0.750000 0.750000 0.500000 
1.500000 0.750000 0.500000 
2.250000 0.750000 0.500000 
3.000000 0.750000 0.500000 
0.000000 1.500000 0.500000 
0.750000 1.500000 0.500000 
1.500000 1.500000 0.500000 
2.250000 1.500000 0.500000 
3.000000 1.500000 0.500000 
0.000000 2.250000 0.500000 
0.750000 2.250000 0.500000 
1.500000 2.250000 0.500000 
2.250000 2.250000 0.500000 
3.000000 2.250000 0.500000 
0.000000 3.000000 0.500000 
0.750000 3.000000 0.500000 
1.500000 3.000000 0.500000 
2.250000 3.000000 0.500000 
3.000000 3.000000 0.500000 
0.000000 0.000000 0.750000 
0.750000 0.000000 0.750000 
1.500000 0.000000 0.750000 
2.250000 0.000000 0.750000 
3.000000 0.000000 0.750000 
0.000000 0.750000 0.750000 
0.750000 0.750000 0.750000 
1.500000 0.750000 0.750000 
2.250000 0.750000 0.750000 
3.000000 0.750000 0.750000 
0.000000 1.500000 0.750000 
0.750000 1.500000 0.750000 
1.500000 1.500000 0.750000 
2.250000 1.500000 0.750000 
3.000000 1.500000 0.750000 
0.000000 2.250000 0.750000 
0.750000 2.250000 0.750000 
1.500000 2.250000 0.750000 
2.250000 2.250000 0.750000 
3.000000 2.250000 0.750000 
0.000000 3.000000 0.750000 
0.750000 3.000000 0.750000 
1.500000 3.000000 0.750000 
2.250000 3.000000 0.750000 
3.000000 3.000000 0.750000 
0.000000 0.000000 1.000000 
0.750000 0.000000 1.000000 
1.500000 0.000000 1.000000 
2.250000 0.000000 1.000000 
3.000000 0.000000 1.000000 
0.000000 0.750000 1.000000 
0.750000 0.750000 1.000000 
1.500000 0.750000 1.000000 
2.250000 0.750000 1.000000 
3.000000 0.750000 1.000000 
0.000000 1.500000 1.000000 
0.750000 1.500000 1.000000 
1.500000 1.500000 1.000000 
2.250000 1.500000 1.000000 
3.000000 1.500000 1.000000 
0.000000 2.250000 1.000000 
0.750000 2.250000 1.000000 
1.500000 2.250000 1.000000 
2.250000 2.250000 1.000000 
3.000000 2.250000 1.000000 
0.000000 3.000000 1.000000 
0.750000 3.000000 1.000000 
1.500000 3.000000 1.000000 
2.250000 3.000000 1.000000 
3.000000 3.000000 1.000000 
0.000000 0.000000 1.250000 
0.750000 0.000000 1.250000 
1.500000 0.000000 1.250000 
2.250000 0.000000 1.250000 
3.000000 0.000000 1.250000 
0.000000 0.750000 1.250000 
0.750000 0.750000 1.250000 
1.500000 0.750000 1.250000 
2.250000 0.750000 1.250000 
3.000000 0.750000 1.250000 
0.000000 1.500000 1.250000 
0.750000 1.500000 1.250000 
1.500000 1.500000 1.250000 
2.250000 1.500000 1.250000 
3.000000 1.500000 1.250000 
0.000000 2.250000 1.250000 
0.750000 2.250000 1.250000 
1.500000 2.250000 1.250000 
2.250000 2.250000 1.250000 
3.000000 2.250000 1.250000 
0.000000 3.000000 1.250000 
0.750000 3.000000 1.250000 
1.500000 3.000000 1.250000 
2.250000 3.000000 1.250000 
3.000000 3.000000 1.250000 
0.000000 0.000000 1.500000 
0.750000 0.000000 1.500000 
1.500000 0.000000 1.500000 
2.250000 0.000000 1.500000 
3.000000 0.000000 1.500000 
0.000000 0.750000 1.500000 
0.750000 0.750000 1.500000 
1.500000 0.750000 1.500000 
2.250000 0.750000 1.500000 
3.000000 0.750000 1.500000 
0.000000 1.500000 1.500000 
0.750000 1.500000 1.500000 
1.500000 1.500000 1.500000 
2.250000 1.500000 1.500000 
3.000000 1.500000 1.500000 
0.000000 2.250000 1.500000 
0.750000 2.250000 1.500000 
1.500000 2.250000 1.500000 
2.250000 2.250000 1.500000 
3.000000 2.250000 1.500000 
0.000000 3.000000 1.500000 
0.750000 3.000000 1.500000 
1.500000 3.000000 1.500000 
2.250000 3.000000 1.500000 
3.000000 3.000000 1.500000 
0.000000 0.000000 1.750000 
0.750000 0.000000 1.750000 
1.500000 0.000000 1.750000 
2.250000 0.000000 1.750000 
3.000000 0.000000 1.750000 
0.000000 0.750000 1.750000 
0.750000 0.750000 1.750000 
1.500000 0.750000 1.750000 
2.250000 0.750000 1.750000 
3.000000 0.750000 1.750000 
0.000000 1.500000 1.750000 
0.750000 1.500000 1.750000 
1.500000 1.500000 1.750000 
2.250000 1.500000 1.750000 
3.000000 1.500000 1.750000 
0.000000 2.250000 1.750000 
0.750000 2.250000 1.750000 
1.500000 2.250000 1.750000 
2.250000 2.250000 1.750000 
3.000000 2.250000 1.750000 
0.000000 3.000000 1.750000 
0.750000 3.000000 1.750000 
1.500000 3.000000 1.750000 
2.250000 3.000000 1.750000 
3.000000 3.000000 1.750000 
0.000000 0.000000 2.000000 
0.750000 0.000000 2.000000 
1.500000 0.000000 2.000000 
2.250000 0.000000 2.000000 
3.000000 0.000000 2.000000 
0.000000 0.750000 2.000000 
0.750000 0.750000 2.000000 
1.500000 0.750000 2.000000 
2.250000 0.750000 2.000000 
3.000000 0.750000 2.000000 
0.000000 1.500000 2.000000 
0.750000 1.500000 2.000000 
1.500000 1.500000 2.000000 
2.250000 1.500000 2.000000 
3.000000 1.500000 2.000000 
0.000000 2.250000 2.000000 
0.750000 2.250000 2.000000 
1.500000 2.250000 2.000000 
2.250000 2.250000 2.000000 
3.000000 2.250000 2.000000 
0.000000 3.000000 2.000000 
0.750000 3.000000 2.000000 
1.500000 3.000000 2.000000 
2.250000 3.000000 2.000000 
3.000000 3.000000 2.000000 
0.000000 0.000000 2.250000 
0.750000 0.000000 2.250000 
1.500000 0.000000 2.250000 
2.250000 0.000000 2.250000 
3.000000 0.000000 2.250000 
0.000000 0.750000 2.250000 
0.750000 0.750000 2.250000 
1.500000 0.750000 2.250000 
2.250000 0.750000 2.250000 
3.000000 0.750000 2.250000 
0.000000 1.500000 2.250000 
0.750000 1.500000 2.250000 
1.500000 1.500000 2.250000 
2.250000 1.500000 2.250000 
3.000000 1.500000 2.250000 
0.000000 2.250000 2.250000 
0.750000 2.250000 2.250000 
1.500000 2.250000 2.250000 
2.250000 2.250000 2.250000 
3.000000 2.250000 2.250000 
0.000000 3.000000 2.250000 
0.750000 3.000000 2.250000 
1.500000 3.000000 2.250000 
2.250000 3.000000 2.250000 
3.000000 3.000000 2.250000 
0.000000 0.000000 2.500000 
0.750000 0.000000 2.500000 
1.500000 0.000000 2.500000 
2.250000 0.000000 2.500000 
3.000000 0.000000 2.500000 
0.000000 0.750000 2.500000 
0.750000 0.750000 2.500000 
1.500000 0.750000 2.500000 
2.250000 0.750000 2.500000 
3.000000 0.750000 2.500000 
0.000000 1.500000 2.500000 
0.750000 1.500000 2.500000 
1.500000 1.500000 2.500000 
2.250000 1.500000 2.500000 
3.000000 1.500000 2.500000 
0.000000 2.250000 2.500000 
0.750000 2.250000 2.500000 
1.500000 2.250000 2.500000 
2.250000 2.250000 2.500000 
3.000000 2.250000 2.500000 
0.000000 3.000000 2.500000 
0.750000 3.000000 2.500000 
1.500000 3.000000 2.500000 
2.250000 3.000000 2.500000 
3.000000 3.000000 2.500000 
0.000000 0.000000 2.750000 
0.750000 0.000000 2.750000 
1.500000 0.000000 2.750000 
2.250000 0.000000 2.750000 
3.000000 0.000000 2.750000 
0.000000 0.750000 2.750000 
0.750000 0.750000 2.750000 
1.500000 0.750000 2.750000 
2.250000 0.750000 2.750000 
3.000000 0.750000 2.750000 
0.000000 1.500000 2.750000 
0.750000 1.500000 2.750000 
1.500000 1.500000 2.750000 
2.250000 1.500000 2.750000 
3.000000 1.500000 2.750000 
0.000000 2.250000 2.750000 
0.750000 2.250000 2.750000 
1.500000 2.250000 2.750000 
2.250000 2.250000 2.750000 
3.000000 2.250000 2.750000 
0.000000 3.000000 2.750000 
0.750000 3.000000 2.750000 
1.500000 3.000000 2.750000 
2.250000 3.000000 2.750000 
3.000000 3.000000 2.750000 
0.000000 0.000000 3.000000 
0.750000 0.000000 3.000000 
1.500000 0.000000 3.000000 
2.250000 0.000000 3.000000 
3.000000 0.000000 3.000000 
0.000000 0.750000 3.000000 
0.750000 0.750000 3.000000 
1.500000 0.750000 3.000000 
2.250000 0.750000 3.000000 
3.000000 0.750000 3.000000 
0.000000 1.500000 3.000000 
0.750000 1.500000 3.000000 
1.500000 1.500000 3.000000 
2.250000 1.500000 3.000000 
3.000000 1.500000 3.000000 
0.000000 2.250000 3.000000 
0.750000 2.250000 3.000000 
1.500000 2.250000 3.000000 
2.250000 2.250000 3.000000 
3.000000 2.250000 3.000000 
0.000000 3.000000 3.000000 
0.750000 3.000000 3.000000 
1.500000 3.000000 3.000000 
2.250000 3.000000 3.000000 
3.000000 3.000000 3.000000 
0.000000 0.000000 3.250000 
0.750000 0.000000 3.250000 
1.500000 0.000000 3.250000 
2.250000 0.000000 3.250000 
3.000000 0.000000 3.250000 
0.000000 0.750000 3.250000 
0.750000 0.750000 3.250000 
1.500000 0.750000 3.250000 
2.250000 0.750000 3.250000 
3.000000 0.750000 3.250000 
0.000000 1.500000 3.250000 
0.750000 1.500000 3.250000 
1.500000 1.500000 3.250000 
2.250000 1.500000 3.250000 
3.000000 1.500000 3.250000 
0.000000 2.250000 3.250000 
0.750000 2.250000 3.250000 
1.500000 2.250000 3.250000 
2.250000 2.250000 3.250000 
3.000000 2.250000 3.250000 
0.000000 3.000000 3.250000 
0.750000 3.000000 3.250000 
1.500000 3.000000 3.250000 
2.250000 3.000000 3.250000 
[...]
<PointData  Scalars="u">
<DataArray  type="Float32"  Name="VectorField1"  NumberOfComponents="3" format="ascii">
0.000000 0.000000 0.000000 
0.000000 0.000000 0.000000 
0.000000 0.000000 0.000000 
0.000000 0.000000 0.000000 
0.000000 0.000000 0.000000 
0.000000 0.000000 0.000000 
0.000000 0.000000 0.000000 
0.000000 0.000000 0.000000 
0.000000 0.000000 0.000000 
0.000000 0.000000 0.000000 
0.000000 0.000000 0.000000 
0.000000 0.000000 0.000000 
0.000000 0.000000 0.000000 
0.000000 0.000000 0.000000 
0.000000 0.000000 0.000000 
0.000000 0.000000 0.000000 
0.000000 0.000000 0.000000 
0.000000 0.000000 0.000000 
0.000000 0.000000 0.000000 
0.000000 0.000000 0.000000 
0.000000 0.000000 0.000000 
0.000000 0.000000 0.000000 
0.000000 0.000000 0.000000 
0.000000 0.000000 0.000000 
0.000000 0.000000 0.000000 
0.000277 0.000294 0.001083 
0.000071 0.000355 0.001006 
0.000000 0.000367 0.001031 
-0.000071 0.000355 0.001006 
-0.000277 0.000294 0.001083 
0.000139 0.000102 0.000476 
0.000036 0.000169 0.000416 
0.000000 0.000178 0.000422 
-0.000036 0.000169 0.000416 
-0.000139 0.000103 0.000476 
-0.000000 0.000091 -0.000000 
-0.000000 0.000162 -0.000000 
-0.000000 0.000172 -0.000000 
-0.000000 0.000162 0.000000 
-0.000000 0.000091 0.000000 
-0.000139 0.000102 -0.000476 
-0.000036 0.000169 -0.000416 
-0.000000 0.000178 -0.000422 
0.000036 0.000169 -0.000416 
0.000139 0.000103 -0.000476 
-0.000277 0.000294 -0.001083 
-0.000071 0.000355 -0.001006 
-0.000000 0.000367 -0.001031 
0.000071 0.000355 -0.001006 
0.000277 0.000294 -0.001083 
0.000415 0.000665 0.002071 
0.000150 0.000780 0.001987 
0.000000 0.000806 0.002001 
-0.000150 0.000780 0.001987 
-0.000415 0.000665 0.002071 
0.000216 0.000429 0.000944 
0.000079 0.000543 0.000874 
0.000000 0.000564 0.000872 
-0.000079 0.000543 0.000874 
-0.000216 0.000429 0.000944 
-0.000000 0.000377 -0.000000 
-0.000000 0.000494 -0.000000 
-0.000000 0.000516 -0.000000 
-0.000000 0.000494 0.000000 
-0.000000 0.000377 0.000000 
-0.000216 0.000429 -0.000944 
-0.000079 0.000543 -0.000874 
-0.000000 0.000564 -0.000872 
0.000079 0.000543 -0.000874 
0.000216 0.000429 -0.000944 
-0.000415 0.000665 -0.002071 
-0.000150 0.000780 -0.001987 
-0.000000 0.000806 -0.002001 
0.000150 0.000780 -0.001987 
0.000415 0.000665 -0.002071 
0.000496 0.001179 0.003007 
0.000208 0.001330 0.002937 
0.000000 0.001369 0.002940 
-0.000208 0.001330 0.002937 
-0.000496 0.001179 0.003007 
0.000260 0.000930 0.001401 
0.000110 0.001078 0.001341 
0.000000 0.001112 0.001332 
-0.000110 0.001078 0.001341 
-0.000260 0.000930 0.001401 
-0.000000 0.000857 -0.000000 
-0.000000 0.001007 -0.000000 
-0.000000 0.001040 -0.000000 
-0.000000 0.001007 0.000000 
-0.000000 0.000857 0.000000 
-0.000260 0.000930 -0.001401 
-0.000110 0.001078 -0.001341 
-0.000000 0.001112 -0.001332 
0.000110 0.001078 -0.001341 
0.000260 0.000930 -0.001401 
-0.000496 0.001179 -0.003007 
-0.000209 0.001330 -0.002937 
-0.000000 0.001369 -0.002940 
0.000208 0.001330 -0.002937 
0.000496 0.001179 -0.003007 
0.000543 0.001844 0.003910 
0.000246 0.002019 0.003859 
0.000000 0.002069 0.003856 
-0.000246 0.002019 0.003859 
-0.000543 0.001844 0.003910 
0.000285 0.001593 0.001846 
0.000130 0.001765 0.001802 
0.000000 0.001810 0.001792 
-0.000130 0.001765 0.001802 
-0.000285 0.001593 0.001846 
-0.000000 0.001512 -0.000000 
-0.000000 0.001687 -0.000000 
-0.000000 0.001729 -0.000000 
-0.000000 0.001687 0.000000 
-0.000000 0.001512 0.000000 
-0.000285 0.001593 -0.001846 
-0.000130 0.001765 -0.001802 
-0.000000 0.001810 -0.001792 
0.000130 0.001765 -0.001802 
0.000285 0.001593 -0.001846 
-0.000543 0.001844 -0.003910 
-0.000246 0.002019 -0.003859 
-0.000000 0.002069 -0.003856 
0.000246 0.002019 -0.003859 
0.000543 0.001844 -0.003910 
0.000568 0.002661 0.004788 
0.000269 0.002852 0.004755 
0.000000 0.002908 0.004750 
-0.000269 0.002852 0.004755 
-0.000568 0.002661 0.004788 
0.000297 0.002414 0.002281 
0.000141 0.002602 0.002253 
0.000000 0.002655 0.002243 
-0.000141 0.002602 0.002253 
-0.000297 0.002414 0.002281 
-0.000000 0.002331 -0.000000 
-0.000000 0.002522 -0.000000 
-0.000000 0.002572 -0.000000 
-0.000000 0.002522 0.000000 
-0.000000 0.002331 0.000000 
-0.000297 0.002414 -0.002281 
-0.000141 0.002602 -0.002253 
-0.000000 0.002655 -0.002243 
0.000141 0.002602 -0.002253 
0.000297 0.002414 -0.002281 
-0.000568 0.002661 -0.004788 
-0.000269 0.002852 -0.004755 
-0.000000 0.002908 -0.004750 
0.000269 0.002852 -0.004755 
0.000568 0.002661 -0.004788 
0.000578 0.003628 0.005642 
0.000280 0.003827 0.005626 
0.000000 0.003889 0.005620 
-0.000280 0.003827 0.005626 
-0.000578 0.003628 0.005643 
0.000301 0.003386 0.002706 
0.000146 0.003584 0.002690 
-0.000000 0.003642 0.002682 
-0.000146 0.003584 0.002690 
-0.000301 0.003386 0.002706 
-0.000000 0.003304 -0.000000 
-0.000000 0.003505 -0.000000 
-0.000000 0.003560 -0.000000 
-0.000000 0.003505 0.000000 
-0.000000 0.003304 0.000000 
-0.000301 0.003386 -0.002706 
-0.000146 0.003584 -0.002690 
-0.000000 0.003642 -0.002682 
0.000146 0.003584 -0.002690 
0.000301 0.003386 -0.002706 
-0.000578 0.003628 -0.005643 
-0.000280 0.003827 -0.005626 
-0.000000 0.003889 -0.005620 
0.000280 0.003827 -0.005626 
0.000578 0.003628 -0.005643 
0.000578 0.004740 0.006475 
0.000284 0.004943 0.006471 
0.000000 0.005008 0.006466 
-0.000284 0.004943 0.006471 
-0.000578 0.004740 0.006475 
0.000300 0.004505 0.003119 
0.000147 0.004708 0.003114 
-0.000000 0.004770 0.003109 
-0.000147 0.004708 0.003114 
-0.000300 0.004505 0.003119 
-0.000000 0.004425 -0.000000 
-0.000000 0.004630 -0.000000 
-0.000000 0.004690 -0.000000 
-0.000000 0.004630 0.000000 
-0.000000 0.004425 0.000000 
-0.000300 0.004505 -0.003119 
-0.000147 0.004708 -0.003114 
-0.000000 0.004770 -0.003109 
0.000147 0.004708 -0.003114 
0.000299 0.004505 -0.003119 
-0.000578 0.004740 -0.006475 
-0.000284 0.004943 -0.006471 
-0.000000 0.005008 -0.006466 
0.000284 0.004943 -0.006471 
0.000578 0.004740 -0.006475 
0.000571 0.005993 0.007286 
0.000284 0.006197 0.007290 
0.000000 0.006263 0.007287 
-0.000284 0.006197 0.007290 
-0.000571 0.005993 0.007286 
0.000295 0.005765 0.003522 
0.000146 0.005969 0.003525 
-0.000000 0.006033 0.003522 
-0.000146 0.005969 0.003525 
-0.000295 0.005765 0.003523 
-0.000000 0.005687 -0.000000 
-0.000000 0.005894 -0.000000 
-0.000000 0.005956 -0.000000 
-0.000000 0.005894 0.000000 
-0.000000 0.005687 0.000000 
-0.000295 0.005765 -0.003523 
-0.000146 0.005969 -0.003525 
-0.000000 0.006033 -0.003522 
0.000146 0.005969 -0.003525 
0.000295 0.005765 -0.003522 
-0.000572 0.005993 -0.007286 
-0.000284 0.006197 -0.007290 
-0.000000 0.006263 -0.007287 
0.000283 0.006197 -0.007290 
0.000571 0.005993 -0.007286 
0.000560 0.007382 0.008073 
0.000280 0.007585 0.008085 
0.000000 0.007651 0.008083 
-0.000279 0.007585 0.008085 
-0.000560 0.007382 0.008074 
0.000288 0.007161 0.003915 
0.000143 0.007365 0.003923 
-0.000000 0.007429 0.003922 
-0.000143 0.007365 0.003923 
-0.000288 0.007161 0.003915 
-0.000000 0.007086 -0.000000 
-0.000000 0.007292 -0.000000 
-0.000000 0.007355 -0.000000 
-0.000000 0.007292 0.000000 
-0.000000 0.007086 0.000000 
-0.000288 0.007161 -0.003915 
-0.000143 0.007365 -0.003923 
-0.000000 0.007429 -0.003922 
0.000143 0.007365 -0.003923 
0.000288 0.007161 -0.003915 
-0.000561 0.007382 -0.008074 
-0.000280 0.007585 -0.008085 
-0.000000 0.007651 -0.008083 
0.000279 0.007585 -0.008085 
0.000560 0.007382 -0.008073 
0.000547 0.008903 0.008838 
0.000273 0.009102 0.008853 
0.000000 0.009168 0.008853 
-0.000273 0.009102 0.008854 
-0.000547 0.008904 0.008838 
0.000281 0.008689 0.004295 
0.000139 0.008890 0.004307 
-0.000000 0.008954 0.004308 
-0.000140 0.008890 0.004307 
-0.000281 0.008689 0.004295 
-0.000000 0.008617 -0.000000 
-0.000000 0.008819 -0.000000 
-0.000000 0.008883 -0.000000 
-0.000000 0.008819 0.000000 
-0.000000 0.008617 0.000000 
-0.000281 0.008689 -0.004295 
-0.000140 0.008890 -0.004307 
-0.000000 0.008954 -0.004308 
0.000139 0.008890 -0.004307 
0.000280 0.008689 -0.004295 
-0.000547 0.008903 -0.008838 
-0.000274 0.009102 -0.008854 
-0.000000 0.009168 -0.008853 
0.000273 0.009102 -0.008853 
0.000547 0.008904 -0.008838 
0.000531 0.010551 0.009578 
0.000266 0.010746 0.009597 
0.000000 0.010811 0.009597 
-0.000266 0.010746 0.009597 
-0.000531 0.010552 0.009578 
0.000272 0.010344 0.004665 
0.000135 0.010540 0.004679 
-0.000000 0.010604 0.004681 
-0.000135 0.010540 0.004679 
-0.000272 0.010344 0.004665 
-0.000000 0.010274 -0.000000 
-0.000000 0.010473 -0.000000 
-0.000000 0.010536 -0.000000 
-0.000000 0.010473 0.000000 
-0.000000 0.010274 0.000000 
-0.000272 0.010344 -0.004665 
-0.000135 0.010540 -0.004679 
-0.000000 0.010604 -0.004681 
0.000135 0.010540 -0.004679 
0.000272 0.010344 -0.004665 
-0.000531 0.010551 -0.009578 
-0.000266 0.010746 -0.009597 
-0.000000 0.010811 -0.009597 
0.000266 0.010746 -0.009597 
0.000531 0.010552 -0.009578 
0.000514 0.012322 0.010294 
0.000258 0.012511 0.010315 
0.000000 0.012575 0.010316 
-0.000258 0.012511 0.010315 
-0.000514 0.012322 0.010294 
0.000263 0.012122 0.005022 
0.000131 0.012313 0.005038 
-0.000000 0.012376 0.005041 
-0.000131 0.012313 0.005038 
-0.000263 0.012122 0.005022 
-0.000000 0.012054 -0.000000 
-0.000000 0.012247 -0.000000 
-0.000000 0.012309 -0.000000 
-0.000000 0.012247 0.000000 
-0.000000 0.012055 0.000000 
-0.000263 0.012122 -0.005022 
-0.000131 0.012313 -0.005038 
-0.000000 0.012376 -0.005041 
0.000131 0.012313 -0.005038 
0.000263 0.012122 -0.005022 
-0.000514 0.012322 -0.010294 
-0.000258 0.012511 -0.010315 
-0.000000 0.012575 -0.010316 
0.000258 0.012511 -0.010315 
0.000514 0.012322 -0.010294 
0.000497 0.014211 0.010986 
0.000249 0.014394 0.011008 
0.000000 0.014456 0.011010 
-0.000249 0.014394 0.011008 
-0.000497 0.014211 0.010986 
0.000254 0.014018 0.005367 
0.000126 0.014203 0.005385 
-0.000000 0.014264 0.005388 
-0.000126 0.014203 0.005385 
-0.000254 0.014018 0.005367 
-0.000000 0.013953 -0.000000 
-0.000000 0.014140 -0.000000 
-0.000000 0.014200 -0.000000 
-0.000000 0.014140 0.000000 
-0.000000 0.013953 0.000000 
-0.000254 0.014018 -0.005367 
-0.000126 0.014203 -0.005385 
-0.000000 0.014264 -0.005388 
0.000126 0.014203 -0.005385 
0.000254 0.014018 -0.005367 
-0.000497 0.014211 -0.010986 
-0.000249 0.014394 -0.011008 
-0.000000 0.014456 -0.011010 
0.000249 0.014394 -0.011008 
0.000497 0.014211 -0.010986 
0.000479 0.016213 0.011653 
0.000240 0.016390 0.011676 
0.000000 0.016450 0.011678 
-0.000240 0.016390 0.011676 
-0.000479 0.016213 0.011653 
0.000244 0.016027 0.005700 
0.000121 0.016206 0.005719 
-0.000000 0.016266 0.005723 
-0.000122 0.016206 0.005719 
-0.000244 0.016027 0.005700 
-0.000000 0.015965 -0.000000 
-0.000000 0.016145 -0.000000 
-0.000000 0.016204 -0.000000 
-0.000000 0.016145 0.000000 
-0.000000 0.015965 0.000000 
-0.000244 0.016027 -0.005701 
-0.000122 0.016206 -0.005719 
-0.000000 0.016266 -0.005723 
0.000121 0.016206 -0.005719 
0.000244 0.016027 -0.005700 
-0.000479 0.016213 -0.011653 
-0.000241 0.016390 -0.011676 
-0.000000 0.016450 -0.011678 
0.000240 0.016390 -0.011676 
0.000479 0.016213 -0.011653 
0.000461 0.018325 0.012295 
0.000231 0.018496 0.012319 
-0.000000 0.018554 0.012321 
-0.000231 0.018496 0.012319 
-0.000461 0.018325 0.012295 
0.000235 0.018146 0.006021 
0.000117 0.018319 0.006040 
-0.000000 0.018376 0.006044 
-0.000117 0.018319 0.006040 
-0.000235 0.018146 0.006021 
-0.000000 0.018086 -0.000000 
-0.000000 0.018260 -0.000000 
-0.000000 0.018317 -0.000000 
-0.000000 0.018260 0.000000 
-0.000000 0.018086 0.000000 
-0.000235 0.018146 -0.006021 
-0.000117 0.018319 -0.006040 
-0.000000 0.018376 -0.006044 
0.000117 0.018319 -0.006040 
0.000235 0.018146 -0.006021 
-0.000461 0.018325 -0.012295 
-0.000232 0.018496 -0.012319 
-0.000000 0.018554 -0.012321 
0.000231 0.018496 -0.012319 
0.000460 0.018325 -0.012295 
0.000442 0.020542 0.012912 
0.000222 0.020706 0.012936 
-0.000000 0.020762 0.012938 
-0.000222 0.020706 0.012936 
-0.000442 0.020542 0.012912 
0.000226 0.020370 0.006330 
0.000112 0.020536 0.006349 
-0.000000 0.020591 0.006353 
-0.000112 0.020536 0.006349 
-0.000226 0.020370 0.006330 
-0.000000 0.020312 -0.000000 
-0.000000 0.020480 -0.000000 
-0.000000 0.020535 -0.000000 
-0.000000 0.020480 0.000000 
-0.000000 0.020313 0.000000 
-0.000226 0.020370 -0.006330 
-0.000112 0.020536 -0.006349 
-0.000000 0.020591 -0.006353 
0.000112 0.020536 -0.006349 
0.000225 0.020370 -0.006330 
-0.000443 0.020542 -0.012912 
-0.000222 0.020706 -0.012936 
-0.000000 0.020762 -0.012938 
0.000222 0.020706 -0.012936 
0.000442 0.020542 -0.012912 
0.000424 0.022860 0.013504 
0.000213 0.023017 0.013528 
-0.000000 0.023071 0.013530 
-0.000213 0.023017 0.013528 
-0.000424 0.022860 0.013504 
0.000216 0.022695 0.006625 
0.000107 0.022854 0.006645 
-0.000000 0.022907 0.006649 
-0.000107 0.022854 0.006645 
-0.000216 0.022695 0.006626 
-0.000000 0.022640 -0.000000 
-0.000000 0.022800 -0.000000 
-0.000000 0.022853 -0.000000 
-0.000000 0.022801 0.000000 
-0.000000 0.022640 0.000000 
-0.000216 0.022695 -0.006626 
-0.000108 0.022854 -0.006645 
-0.000000 0.022907 -0.006649 
0.000107 0.022854 -0.006645 
0.000216 0.022695 -0.006625 
-0.000424 0.022860 -0.013504 
-0.000213 0.023017 -0.013528 
-0.000000 0.023071 -0.013530 
0.000213 0.023017 -0.013528 
0.000424 0.022860 -0.013504 
0.000406 0.025274 0.014071 
0.000204 0.025425 0.014095 
-0.000000 0.025476 0.014098 
-0.000204 0.025425 0.014095 
-0.000406 0.025274 0.014071 
0.000207 0.025117 0.006909 
0.000103 0.025269 0.006928 
-0.000000 0.025320 0.006933 
-0.000103 0.025269 0.006928 
-0.000207 0.025117 0.006909 
-0.000000 0.025064 -0.000000 
-0.000000 0.025218 -0.000000 
-0.000000 0.025268 -0.000000 
-0.000000 0.025218 0.000000 
-0.000000 0.025064 0.000000 
-0.000207 0.025117 -0.006909 
-0.000103 0.025269 -0.006928 
-0.000000 0.025320 -0.006933 
0.000103 0.025269 -0.006928 
0.000207 0.025117 -0.006909 
-0.000406 0.025274 -0.014071 
-0.000204 0.025425 -0.014095 
-0.000000 0.025476 -0.014098 
0.000204 0.025425 -0.014095 
0.000405 0.025274 -0.014071 
0.000387 0.027781 0.014612 
0.000194 0.027925 0.014637 
-0.000000 0.027974 0.014639 
-0.000195 0.027925 0.014637 
-0.000387 0.027781 0.014613 
0.000197 0.027631 0.007180 
0.000098 0.027776 0.007199 
-0.000000 0.027825 0.007204 
-0.000098 0.027776 0.007199 
-0.000197 0.027631 0.007180 
-0.000000 0.027580 -0.000000 
-0.000000 0.027727 -0.000000 
-0.000000 0.027775 -0.000000 
-0.000000 0.027727 0.000000 
-0.000000 0.027581 0.000000 
-0.000198 0.027631 -0.007180 
-0.000098 0.027776 -0.007199 
-0.000000 0.027825 -0.007204 
0.000098 0.027776 -0.007199 
0.000197 0.027631 -0.007180 
-0.000388 0.027781 -0.014613 
-0.000195 0.027925 -0.014637 
-0.000000 0.027974 -0.014639 
0.000194 0.027925 -0.014637 
0.000387 0.027781 -0.014613 
0.000369 0.030376 0.015129 
0.000185 0.030513 0.015154 
-0.000000 0.030560 0.015156 
-0.000185 0.030514 0.015154 
-0.000369 0.030377 0.015129 
0.000188 0.030233 0.007438 
0.000093 0.030372 0.007457 
-0.000000 0.030418 0.007462 
-0.000093 0.030372 0.007457 
-0.000188 0.030233 0.007438 
-0.000000 0.030185 -0.000000 
-0.000000 0.030325 -0.000000 
-0.000000 0.030371 -0.000000 
-0.000000 0.030325 0.000000 
-0.000000 0.030185 0.000000 
-0.000188 0.030233 -0.007438 
-0.000094 0.030372 -0.007457 
-0.000000 0.030418 -0.007462 
0.000093 0.030372 -0.007457 
0.000188 0.030233 -0.007438 
-0.000369 0.030376 -0.015129 
-0.000186 0.030513 -0.015154 
-0.000000 0.030560 -0.015156 
0.000185 0.030514 -0.015154 
0.000369 0.030377 -0.015129 
0.000350 0.033056 0.015621 
0.000176 0.033186 0.015645 
-0.000000 0.033230 0.015648 
-0.000176 0.033186 0.015645 
-0.000350 0.033056 0.015621 
0.000178 0.032920 0.007684 
0.000089 0.033051 0.007703 
-0.000000 0.033095 0.007708 
-0.000089 0.033051 0.007703 
-0.000179 0.032920 0.007684 
-0.000000 0.032874 -0.000000 
-0.000000 0.033007 -0.000000 
-0.000000 0.033050 -0.000000 
-0.000000 0.033007 0.000000 
-0.000000 0.032874 0.000000 
-0.000179 0.032920 -0.007684 
-0.000089 0.033051 -0.007703 
-0.000000 0.033095 -0.007708 
0.000088 0.033051 -0.007703 
0.000178 0.032920 -0.007684 
-0.000351 0.033056 -0.015621 
-0.000176 0.033186 -0.015645 
-0.000000 0.033230 -0.015648 
0.000176 0.033186 -0.015645 
0.000350 0.033056 -0.015621 
0.000332 0.035815 0.016087 
0.000167 0.035938 0.016111 
-0.000000 0.035980 0.016114 
-0.000167 0.035938 0.016112 
-0.000332 0.035815 0.016087 
0.000169 0.035686 0.007917 
0.000084 0.035811 0.007936 
-0.000000 0.035852 0.007941 
-0.000084 0.035811 0.007936 
-0.000169 0.035686 0.007917 
-0.000000 0.035642 -0.000000 
-0.000000 0.035768 -0.000000 
-0.000000 0.035810 -0.000000 
-0.000000 0.035768 0.000000 
-0.000000 0.035643 0.000000 
-0.000169 0.035686 -0.007917 
-0.000084 0.035811 -0.007936 
-0.000000 0.035852 -0.007941 
0.000084 0.035811 -0.007936 
0.000169 0.035686 -0.007917 
-0.000332 0.035815 -0.016087 
-0.000167 0.035938 -0.016112 
-0.000000 0.035980 -0.016114 
0.000166 0.035938 -0.016111 
0.000332 0.035815 -0.016087 
0.000314 0.038649 0.016528 
0.000157 0.038766 0.016553 
-0.000000 0.038806 0.016555 
-0.000158 0.038766 0.016553 
-0.000314 0.038650 0.016528 
0.000160 0.038528 0.008137 
0.000079 0.038645 0.008157 
-0.000000 0.038685 0.008162 
-0.000079 0.038646 0.008157 
-0.000160 0.038528 0.008137 
-0.000000 0.038487 -0.000000 
-0.000000 0.038606 -0.000000 
-0.000000 0.038645 -0.000000 
-0.000000 0.038606 0.000000 
-0.000000 0.038487 0.000000 
-0.000160 0.038528 -0.008138 
-0.000080 0.038645 -0.008157 
-0.000000 0.038685 -0.008162 
0.000079 0.038646 -0.008157 
0.000159 0.038528 -0.008137 
-0.000314 0.038649 -0.016528 
-0.000158 0.038766 -0.016553 
-0.000000 0.038806 -0.016555 
0.000157 0.038766 -0.016553 
0.000313 0.038650 -0.016528 
0.000295 0.041555 0.016944 
0.000148 0.041665 0.016969 
-0.000000 0.041703 0.016971 
-0.000148 0.041665 0.016969 
-0.000295 0.041556 0.016944 
0.000150 0.041441 0.008345 
0.000075 0.041552 0.008365 
-0.000000 0.041589 0.008370 
-0.000075 0.041552 0.008365 
-0.000150 0.041441 0.008345 
-0.000000 0.041402 -0.000000 
-0.000000 0.041514 -0.000000 
-0.000000 0.041551 -0.000000 
-0.000000 0.041514 0.000000 
-0.000000 0.041403 0.000000 
-0.000151 0.041441 -0.008345 
-0.000075 0.041552 -0.008365 
-0.000000 0.041589 -0.008370 
0.000074 0.041552 -0.008365 
0.000150 0.041441 -0.008345 
-0.000295 0.041555 -0.016944 
-0.000149 0.041665 -0.016969 
-0.000000 0.041703 -0.016971 
0.000148 0.041665 -0.016969 
0.000295 0.041556 -0.016944 
0.000277 0.044529 0.017335 
0.000139 0.044632 0.017359 
-0.000000 0.044667 0.017362 
-0.000139 0.044632 0.017359 
-0.000277 0.044529 0.017335 
0.000141 0.044421 0.008541 
0.000070 0.044525 0.008560 
-0.000000 0.044560 0.008565 
-0.000070 0.044526 0.008560 
-0.000141 0.044422 0.008541 
-0.000000 0.044385 -0.000000 
-0.000000 0.044490 -0.000000 
-0.000000 0.044525 -0.000000 
-0.000000 0.044490 -0.000000 
-0.000000 0.044386 0.000000 
-0.000141 0.044421 -0.008541 
-0.000070 0.044525 -0.008560 
-0.000000 0.044560 -0.008565 
0.000070 0.044526 -0.008560 
0.000141 0.044422 -0.008541 
-0.000277 0.044529 -0.017335 
-0.000139 0.044632 -0.017359 
-0.000000 0.044667 -0.017362 
0.000139 0.044632 -0.017359 
0.000276 0.044529 -0.017335 
0.000258 0.047565 0.017700 
0.000130 0.047661 0.017725 
-0.000000 0.047694 0.017727 
-0.000130 0.047661 0.017725 
-0.000258 0.047566 0.017701 
0.000131 0.047465 0.008723 
0.000065 0.047562 0.008743 
-0.000000 0.047595 0.008748 
-0.000065 0.047562 0.008743 
-0.000132 0.047465 0.008724 
-0.000000 0.047431 -0.000000 
-0.000000 0.047529 -0.000000 
-0.000000 0.047562 -0.000000 
-0.000000 0.047529 -0.000000 
-0.000000 0.047432 0.000000 
-0.000132 0.047465 -0.008724 
-0.000066 0.047562 -0.008743 
-0.000000 0.047595 -0.008748 
0.000065 0.047562 -0.008743 
0.000131 0.047465 -0.008724 
-0.000259 0.047565 -0.017701 
-0.000130 0.047661 -0.017725 
-0.000000 0.047694 -0.017727 
0.000129 0.047661 -0.017725 
0.000258 0.047566 -0.017700 
0.000240 0.050660 0.018041 
0.000120 0.050750 0.018065 
-0.000000 0.050780 0.018068 
-0.000121 0.050750 0.018065 
-0.000240 0.050661 0.018041 
0.000122 0.050567 0.008894 
0.000060 0.050658 0.008913 