<?xml version="1.0"?>
<VTKFile type="UnstructuredGrid"  version="0.1"  >
<UnstructuredGrid>
<Piece  NumberOfPoints="1025" NumberOfCells="640">
<Points>
<DataArray  type="Float32"  NumberOfComponents="3"  format="ascii">
0.000000 0.000000 0.000000 
0.750000 0.000000 0.000000 
1.500000 0.000000 0.000000 
2.250000 0.000000 0.000000 
3.000000 0.000000 0.000000 
0.000000 0.750000 0.000000 
0.750000 0.750000 0.000000 
1.500000 0.750000 0.000000 
2.250000 0.750000 0.000000 
3.000000 0.750000 0.000000 
0.000000 1.500000 0.000000 
0.750000 1.500000 0.000000 
1.500000 1.500000 0.000000 
2.250000 1.500000 0.000000 
3.000000 1.500000 0.000000 
0.000000 2.250000 0.000000 
0.750000 2.250000 0.000000 
1.500000 2.250000 0.000000 
2.250000 2.250000 0.000000 
3.000000 2.250000 0.000000 
0.000000 3.000000 0.000000 
0.750000 3.000000 0.000000 
1.500000 3.000000 0.000000 
2.250000 3.000000 0.000000 
3.000000 3.000000 0.000000 
0.000000 0.000000 0.250000 
0.750000 0.000000 0.250000 
1.500000 0.000000 0.250000 
2.250000 0.000000 0.250000 
3.000000 0.000000 0.250000 
0.000000 0.750000 0.250000 
0.750000 0.750000 0.250000 
1.500000 0.750000 0.250000 
2.250000 0.750000 0.250000 
3.000000 0.750000 0.250000 
0.000000 1.500000 0.250000 
0.750000 1.500000 0.250000 
1.500000 1.500000 0.250000 
2.250000 1.500000 0.250000 
3.000000 1.500000 0.250000 
0.000000 2.250000 0.250000 
0.750000 2.250000 0.250000 
1.500000 2.250000 0.250000 
2.250000 2.250000 0.250000 
3.000000 2.250000 0.250000 
0.000000 3.000000 0.250000 
0.750000 3.000000 0.250000 
1.500000 3.000000 0.250000 
2.250000 3.000000 0.250000 
3.000000 3.000000 0.250000 
0.000000 0.000000 0.500000 
0.750000 0.000000 0.500000 
1.500000 0.000000 0.500000 
2.250000 0.000000 0.500000 
3.000000 0.000000 0.500000 
0.000000 0.750000 0.500000 
0.750000 0.750000 0.500000 
1.500000 0.750000 0.500000 
2.250000 0.750000 0.500000 
3.000000 0.750000 0.500000 
0.000000 1.500000 0.500000 
0.750000 1.500000 0.500000 
1.500000 1.500000 0.500000 
2.250000 1.500000 0.500000 
3.000000 1.500000 0.500000 
0.000000 2.250000 0.500000 
0.750000 2.250000 0.500000 
1.500000 2.250000 0.500000 
2.250000 2.250000 0.500000 
3.000000 2.250000 0.500000 
0.000000 3.000000 0.500000 
0.750000 3.000000 0.500000 
1.500000 3.000000 0.500000 
2.250000 3.000000 0.500000 
3.000000 3.000000 0.500000 
0.000000 0.000000 0.750000 
0.750000 0.000000 0.750000 
1.500000 0.000000 0.750000 
2.250000 0.000000 0.750000 
3.000000 0.000000 0.750000 
0.000000 0.750000 0.750000 
0.750000 0.750000 0.750000 
1.500000 0.750000 0.750000 
2.250000 0.750000 0.750000 
3.000000 0.750000 0.750000 
0.000000 1.500000 0.750000 
0.750000 1.500000 0.750000 
1.500000 1.500000 0.750000 
2.250000 1.500000 0.750000 
3.000000 1.500000 0.750000 
0.000000 2.250000 0.750000 
0.750000 2.250000 0.750000 
1.500000 2.250000 0.750000 
2.250000 2.250000 0.750000 
3.000000 2.250000 0.750000 
0.000000 3.000000 0.750000 
0.750000 3.000000 0.750000 
1.500000 3.000000 0.750000 
2.250000 3.000000 0.750000 
3.000000 3.000000 0.750000 
0.000000 0.000000 1.000000 
0.750000 0.000000 1.000000 
1.500000 0.000000 1.000000 
2.250000 0.000000 1.000000 
3.000000 0.000000 1.000000 
0.000000 0.750000 1.000000 
0.750000 0.750000 1.000000 
1.500000 0.750000 1.000000 
2.250000 0.750000 1.000000 
3.000000 0.750000 1.000000 
0.000000 1.500000 1.000000 
0.750000 1.500000 1.000000 
1.500000 1.500000 1.000000 
2.250000 1.500000 1.000000 
3.000000 1.500000 1.000000 
0.000000 2.250000 1.000000 
0.750000 2.250000 1.000000 
1.500000 2.250000 1.000000 
2.250000 2.250000 1.000000 
3.000000 2.250000 1.000000 
0.000000 3.000000 1.000000 
0.750000 3.000000 1.000000 
1.500000 3.000000 1.000000 
2.250000 3.000000 1.000000 
3.000000 3.000000 1.000000 
0.000000 0.000000 1.250000 
0.750000 0.000000 1.250000 
1.500000 0.000000 1.250000 
2.250000 0.000000 1.250000 
3.000000 0.000000 1.250000 
0.000000 0.750000 1.250000 
0.750000 0.750000 1.250000 
1.500000 0.750000 1.250000 
2.250000 0.750000 1.250000 
3.000000 0.750000 1.250000 
0.000000 1.500000 1.250000 
0.750000 1.500000 1.250000 
1.500000 1.500000 1.250000 
2.250000 1.500000 1.250000 
3.000000 1.500000 1.250000 
0.000000 2.250000 1.250000 
0.750000 2.250000 1.250000 
1.500000 2.250000 1.250000 
2.250000 2.250000 1.250000 
3.000000 2.250000 1.250000 
0.000000 3.000000 1.250000 
0.750000 3.000000 1.250000 
1.500000 3.000000 1.250000 
2.250000 3.000000 1.250000 
3.000000 3.000000 1.250000 
0.000000 0.000000 1.500000 
0.750000 0.000000 1.500000 
1.500000 0.000000 1.500000 
2.250000 0.000000 1.500000 
3.000000 0.000000 1.500000 
0.000000 0.750000 1.500000 
0.750000 0.750000 1.500000 
1.500000 0.750000 1.500000 
2.250000 0.750000 1.500000 
3.000000 0.750000 1.500000 
0.000000 1.500000 1.500000 
0.750000 1.500000 1.500000 
1.500000 1.500000 1.500000 
2.250000 1.500000 1.500000 
3.000000 1.500000 1.500000 
0.000000 2.250000 1.500000 
0.750000 2.250000 1.500000 
1.500000 2.250000 1.500000 
2.250000 2.250000 1.500000 
3.000000 2.250000 1.500000 
0.000000 3.000000 1.500000 
0.750000 3.000000 1.500000 
1.500000 3.000000 1.500000 
2.250000 3.000000 1.500000 
3.000000 3.000000 1.500000 
0.000000 0.000000 1.750000 
0.750000 0.000000 1.750000 
1.500000 0.000000 1.750000 
2.250000 0.000000 1.750000 
3.000000 0.000000 1.750000 
0.000000 0.750000 1.750000 
0.750000 0.750000 1.750000 
1.500000 0.750000 1.750000 
2.250000 0.750000 1.750000 
3.000000 0.750000 1.750000 
0.000000 1.500000 1.750000 
0.750000 1.500000 1.750000 
1.500000 1.500000 1.750000 
2.250000 1.500000 1.750000 
3.000000 1.500000 1.750000 
0.000000 2.250000 1.750000 
0.750000 2.250000 1.750000 
1.500000 2.250000 1.750000 
2.250000 2.250000 1.750000 
3.000000 2.250000 1.750000 
0.000000 3.000000 1.750000 
0.750000 3.000000 1.750000 
1.500000 3.000000 1.750000 
2.250000 3.000000 1.750000 
3.000000 3.000000 1.750000 
0.000000 0.000000 2.000000 
0.750000 0.000000 2.000000 
1.500000 0.000000 2.000000 
2.250000 0.000000 2.000000 
3.000000 0.000000 2.000000 
0.000000 0.750000 2.000000 
0.750000 0.750000 2.000000 
1.500000 0.750000 2.000000 
2.250000 0.750000 2.000000 
3.000000 0.750000 2.000000 
0.000000 1.500000 2.000000 
0.750000 1.500000 2.000000 
1.500000 1.500000 2.000000 
2.250000 1.500000 2.000000 
3.000000 1.500000 2.000000 
0.000000 2.250000 2.000000 
0.750000 2.250000 2.000000 
1.500000 2.250000 2.000000 
2.250000 2.250000 2.000000 
3.000000 2.250000 2.000000 
0.000000 3.000000 2.000000 
0.750000 3.000000 2.000000 
1.500000 3.000000 2.000000 
2.250000 3.000000 2.000000 
3.000000 3.000000 2.000000 
0.000000 0.000000 2.250000 
0.750000 0.000000 2.250000 
1.500000 0.000000 2.250000 
2.250000 0.000000 2.250000 
3.000000 0.000000 2.250000 
0.000000 0.750000 2.250000 
0.750000 0.750000 2.250000 
1.500000 0.750000 2.250000 
2.250000 0.750000 2.250000 
3.000000 0.750000 2.250000 
0.000000 1.500000 2.250000 
0.750000 1.500000 2.250000 
1.500000 1.500000 2.250000 
2.250000 1.500000 2.250000 
3.000000 1.500000 2.250000 
0.000000 2.250000 2.250000 
0.750000 2.250000 2.250000 
1.500000 2.250000 2.250000 
2.250000 2.250000 2.250000 
3.000000 2.250000 2.250000 
0.000000 3.000000 2.250000 
0.750000 3.000000 2.250000 
1.500000 3.000000 2.250000 
2.250000 3.000000 2.250000 
3.000000 3.000000 2.250000 
0.000000 0.000000 2.500000 
0.750000 0.000000 2.500000 
1.500000 0.000000 2.500000 
2.250000 0.000000 2.500000 
3.000000 0.000000 2.500000 
0.000000 0.750000 2.500000 
0.750000 0.750000 2.500000 
1.500000 0.750000 2.500000 
2.250000 0.750000 2.500000 
3.000000 0.750000 2.500000 
0.000000 1.500000 2.500000 
0.750000 1.500000 2.500000 
1.500000 1.500000 2.500000 
2.250000 1.500000 2.500000 
3.000000 1.500000 2.500000 
0.000000 2.250000 2.500000 
0.750000 2.250000 2.500000 
1.500000 2.250000 2.500000 
2.250000 2.250000 2.500000 
3.000000 2.250000 2.500000 
0.000000 3.000000 2.500000 
0.750000 3.000000 2.500000 
1.500000 3.000000 2.500000 
2.250000 3.000000 2.500000 
3.000000 3.000000 2.500000 
0.000000 0.000000 2.750000 
0.750000 0.000000 2.750000 
1.500000 0.000000 2.750000 
2.250000 0.000000 2.750000 
3.000000 0.000000 2.750000 
0.000000 0.750000 2.750000 
0.750000 0.750000 2.750000 
1.500000 0.750000 2.750000 
2.250000 0.750000 2.750000 
3.000000 0.750000 2.750000 
0.000000 1.500000 2.750000 
0.750000 1.500000 2.750000 
1.500000 1.500000 2.750000 
2.250000 1.500000 2.750000 
3.000000 1.500000 2.750000 
0.000000 2.250000 2.750000 
0.750000 2.250000 2.750000 
1.500000 2.250000 2.750000 
2.250000 2.250000 2.750000 
3.000000 2.250000 2.750000 
0.000000 3.000000 2.750000 
0.750000 3.000000 2.750000 
1.500000 3.000000 2.750000 
2.250000 3.000000 2.750000 
3.000000 3.000000 2.750000 
0.000000 0.000000 3.000000 
0.750000 0.000000 3.000000 
1.500000 0.000000 3.000000 
2.250000 0.000000 3.000000 
3.000000 0.000000 3.000000 
0.000000 0.750000 3.000000 
0.750000 0.750000 3.000000 
1.500000 0.750000 3.000000 
2.250000 0.750000 3.000000 
3.000000 0.750000 3.000000 
0.000000 1.500000 3.000000 
0.750000 1.500000 3.000000 
1.500000 1.500000 3.000000 
2.250000 1.500000 3.000000 
3.000000 1.500000 3.000000 
0.000000 2.250000 3.000000 
0.750000 2.250000 3.000000 
1.500000 2.250000 3.000000 
2.250000 2.250000 3.000000 
3.000000 2.250000 3.000000 
0.000000 3.000000 3.000000 
0.750000 3.000000 3.000000 
1.500000 3.000000 3.000000 
2.250000 3.000000 3.000000 
3.000000 3.000000 3.000000 
0.000000 0.000000 3.250000 
0.750000 0.000000 3.250000 
1.500000 0.000000 3.250000 
2.250000 0.000000 3.250000 
3.000000 0.000000 3.250000 
0.000000 0.750000 3.250000 
0.750000 0.750000 3.250000 
1.500000 0.750000 3.250000 
2.250000 0.750000 3.250000 
3.000000 0.750000 3.250000 
0.000000 1.500000 3.250000 
0.750000 1.500000 3.250000 
1.500000 1.500000 3.250000 
2.250000 1.500000 3.250000 
3.000000 1.500000 3.250000 
0.000000 2.250000 3.250000 
0.750000 2.250000 3.250000 
1.500000 2.250000 3.250000 
2.250000 2.250000 3.250000 
3.000000 2.250000 3.250000 
0.000000 3.000000 3.250000 
0.750000 3.000000 3.250000 
1.500000 3.000000 3.250000 
2.250000 3.000000 3.250000 
[...]
<PointData  Scalars="u">
<DataArray  type="Float32"  Name="VectorField1"  NumberOfComponents="3" format="ascii">
0.000000 0.000000 0.000000 
0.000000 0.000000 0.000000 
0.000000 0.000000 0.000000 
0.000000 0.000000 0.000000 
0.000000 0.000000 0.000000 
0.000000 0.000000 0.000000 
0.000000 0.000000 0.000000 
0.000000 0.000000 0.000000 
0.000000 0.000000 0.000000 
0.000000 0.000000 0.000000 
0.000000 0.000000 0.000000 
0.000000 0.000000 0.000000 
0.000000 0.000000 0.000000 
0.000000 0.000000 0.000000 
0.000000 0.000000 0.000000 
0.000000 0.000000 0.000000 
0.000000 0.000000 0.000000 
0.000000 0.000000 0.000000 
0.000000 0.000000 0.000000 
0.000000 0.000000 0.000000 
0.000000 0.000000 0.000000 
0.000000 0.000000 0.000000 
0.000000 0.000000 0.000000 
0.000000 0.000000 0.000000 
0.000000 0.000000 0.000000 
0.000170 0.000180 0.000666 
0.000044 0.000218 0.000618 
-0.000000 0.000225 0.000633 
-0.000044 0.000218 0.000618 
-0.000170 0.000180 0.000666 
0.000085 0.000062 0.000293 
0.000022 0.000103 0.000256 
0.000000 0.000108 0.000259 
-0.000022 0.000103 0.000256 
-0.000085 0.000062 0.000293 
0.000000 0.000055 0.000000 
0.000000 0.000098 0.000000 
0.000000 0.000105 0.000000 
0.000000 0.000098 -0.000000 
0.000000 0.000055 -0.000000 
-0.000085 0.000062 -0.000293 
-0.000022 0.000103 -0.000256 
0.000000 0.000108 -0.000259 
0.000022 0.000103 -0.000256 
0.000085 0.000062 -0.000293 
-0.000170 0.000180 -0.000666 
-0.000044 0.000218 -0.000618 
0.000000 0.000225 -0.000633 
0.000044 0.000218 -0.000618 
0.000170 0.000180 -0.000666 
0.000255 0.000407 0.001273 
0.000092 0.000478 0.001221 
0.000000 0.000494 0.001230 
-0.000092 0.000478 0.001221 
-0.000255 0.000407 0.001273 
0.000133 0.000262 0.000581 
0.000048 0.000332 0.000538 
0.000000 0.000345 0.000536 
-0.000048 0.000332 0.000538 
-0.000133 0.000262 0.000581 
0.000000 0.000230 0.000000 
0.000000 0.000302 0.000000 
0.000000 0.000315 0.000000 
0.000000 0.000302 -0.000000 
0.000000 0.000230 -0.000000 
-0.000133 0.000262 -0.000581 
-0.000048 0.000332 -0.000538 
0.000000 0.000345 -0.000536 
0.000048 0.000332 -0.000538 
0.000133 0.000262 -0.000581 
-0.000255 0.000407 -0.001273 
-0.000092 0.000478 -0.001221 
0.000000 0.000494 -0.001230 
0.000092 0.000478 -0.001221 
0.000255 0.000407 -0.001273 
0.000305 0.000722 0.001849 
0.000128 0.000815 0.001805 
0.000000 0.000839 0.001808 
-0.000128 0.000815 0.001805 
-0.000305 0.000722 0.001849 
0.000160 0.000569 0.000862 
0.000068 0.000660 0.000825 
0.000000 0.000681 0.000820 
-0.000068 0.000660 0.000825 
-0.000160 0.000569 0.000862 
0.000000 0.000524 0.000000 
0.000000 0.000616 0.000000 
0.000000 0.000637 0.000000 
0.000000 0.000616 -0.000000 
0.000000 0.000524 -0.000000 
-0.000160 0.000569 -0.000862 
-0.000068 0.000660 -0.000825 
0.000000 0.000681 -0.000820 
0.000068 0.000660 -0.000825 
0.000160 0.000569 -0.000862 
-0.000305 0.000722 -0.001849 
-0.000128 0.000815 -0.001805 
0.000000 0.000839 -0.001808 
0.000128 0.000815 -0.001805 
0.000305 0.000722 -0.001849 
0.000334 0.001130 0.002404 
0.000152 0.001238 0.002373 
0.000000 0.001268 0.002371 
-0.000152 0.001238 0.002373 
-0.000334 0.001130 0.002404 
0.000175 0.000976 0.001136 
0.000080 0.001082 0.001109 
0.000000 0.001109 0.001102 
-0.000080 0.001082 0.001109 
-0.000175 0.000976 0.001136 
0.000000 0.000926 0.000000 
0.000000 0.001033 0.000000 
0.000000 0.001059 0.000000 
0.000000 0.001033 -0.000000 
0.000000 0.000926 -0.000000 
-0.000175 0.000976 -0.001136 
-0.000080 0.001082 -0.001109 
0.000000 0.001109 -0.001102 
0.000080 0.001082 -0.001109 
0.000175 0.000976 -0.001136 
-0.000334 0.001130 -0.002404 
-0.000152 0.001238 -0.002373 
0.000000 0.001268 -0.002371 
0.000152 0.001238 -0.002373 
0.000334 0.001130 -0.002404 
0.000350 0.001632 0.002945 
0.000166 0.001749 0.002924 
0.000000 0.001784 0.002921 
-0.000166 0.001749 0.002924 
-0.000350 0.001632 0.002945 
0.000183 0.001479 0.001404 
0.000087 0.001595 0.001386 
0.000000 0.001628 0.001380 
-0.000087 0.001595 0.001386 
-0.000183 0.001479 0.001404 
0.000000 0.001428 0.000000 
0.000000 0.001546 0.000000 
0.000000 0.001577 0.000000 
0.000000 0.001546 -0.000000 
0.000000 0.001428 -0.000000 
-0.000183 0.001479 -0.001404 
-0.000087 0.001595 -0.001386 
0.000000 0.001628 -0.001380 
0.000087 0.001595 -0.001386 
0.000183 0.001479 -0.001404 
-0.000350 0.001632 -0.002944 
-0.000165 0.001749 -0.002924 
0.000000 0.001784 -0.002921 
0.000166 0.001749 -0.002924 
0.000350 0.001632 -0.002945 
0.000356 0.002225 0.003471 
0.000173 0.002348 0.003460 
0.000000 0.002386 0.003457 
-0.000173 0.002348 0.003460 
-0.000356 0.002225 0.003471 
0.000185 0.002076 0.001665 
0.000090 0.002199 0.001656 
0.000000 0.002234 0.001651 
-0.000090 0.002199 0.001656 
-0.000185 0.002076 0.001665 
0.000000 0.002026 0.000000 
0.000000 0.002150 0.000000 
0.000000 0.002184 0.000000 
0.000000 0.002150 -0.000000 
0.000000 0.002026 -0.000000 
-0.000185 0.002076 -0.001665 
-0.000090 0.002199 -0.001656 
0.000000 0.002234 -0.001651 
0.000090 0.002199 -0.001656 
0.000185 0.002076 -0.001665 
-0.000356 0.002225 -0.003471 
-0.000173 0.002348 -0.003460 
0.000000 0.002386 -0.003457 
0.000173 0.002348 -0.003460 
0.000356 0.002225 -0.003471 
0.000356 0.002909 0.003984 
0.000175 0.003034 0.003981 
0.000000 0.003074 0.003978 
-0.000175 0.003034 0.003981 
-0.000356 0.002909 0.003984 
0.000185 0.002764 0.001920 
0.000091 0.002889 0.001917 
0.000000 0.002927 0.001914 
-0.000091 0.002889 0.001917 
-0.000185 0.002764 0.001920 
0.000000 0.002714 0.000000 
0.000000 0.002841 0.000000 
0.000000 0.002878 0.000000 
0.000000 0.002841 -0.000000 
0.000000 0.002714 -0.000000 
-0.000185 0.002764 -0.001920 
-0.000091 0.002889 -0.001917 
0.000000 0.002927 -0.001914 
0.000091 0.002889 -0.001917 
0.000185 0.002764 -0.001920 
-0.000356 0.002909 -0.003984 
-0.000175 0.003034 -0.003981 
0.000000 0.003074 -0.003978 
0.000175 0.003034 -0.003981 
0.000356 0.002909 -0.003984 
0.000352 0.003679 0.004484 
0.000175 0.003805 0.004486 
0.000000 0.003845 0.004484 
-0.000175 0.003805 0.004486 
-0.000352 0.003679 0.004484 
0.000182 0.003538 0.002169 
0.000090 0.003664 0.002170 
0.000000 0.003704 0.002168 
-0.000090 0.003664 0.002170 
-0.000182 0.003538 0.002169 
0.000000 0.003490 0.000000 
0.000000 0.003618 0.000000 
0.000000 0.003656 0.000000 
0.000000 0.003618 -0.000000 
0.000000 0.003490 -0.000000 
-0.000182 0.003538 -0.002169 
-0.000090 0.003664 -0.002170 
0.000000 0.003704 -0.002168 
0.000090 0.003664 -0.002170 
0.000182 0.003538 -0.002169 
-0.000352 0.003679 -0.004484 
-0.000175 0.003805 -0.004486 
0.000000 0.003845 -0.004484 
0.000175 0.003805 -0.004486 
0.000352 0.003679 -0.004484 
0.000346 0.004533 0.004969 
0.000172 0.004658 0.004976 
0.000000 0.004699 0.004975 
-0.000172 0.004658 0.004976 
-0.000346 0.004533 0.004969 
0.000178 0.004397 0.002411 
0.000088 0.004522 0.002415 
0.000000 0.004562 0.002415 
-0.000088 0.004522 0.002415 
-0.000178 0.004397 0.002410 
0.000000 0.004350 0.000000 
0.000000 0.004477 0.000000 
0.000000 0.004516 0.000000 
0.000000 0.004477 -0.000000 
0.000000 0.004350 -0.000000 
-0.000178 0.004397 -0.002410 
-0.000088 0.004522 -0.002415 
0.000000 0.004562 -0.002415 
0.000088 0.004522 -0.002415 
0.000178 0.004397 -0.002411 
-0.000346 0.004533 -0.004969 
-0.000172 0.004658 -0.004976 
0.000000 0.004699 -0.004975 
0.000172 0.004658 -0.004976 
0.000346 0.004533 -0.004969 
0.000337 0.005468 0.005441 
0.000169 0.005591 0.005450 
0.000000 0.005632 0.005450 
-0.000169 0.005591 0.005450 
-0.000337 0.005468 0.005441 
0.000173 0.005336 0.002646 
0.000086 0.005460 0.002653 
0.000000 0.005500 0.002653 
-0.000086 0.005460 0.002653 
-0.000173 0.005336 0.002645 
0.000000 0.005292 0.000000 
0.000000 0.005417 0.000000 
0.000000 0.005456 0.000000 
0.000000 0.005417 -0.000000 
0.000000 0.005292 -0.000000 
-0.000173 0.005336 -0.002645 
-0.000086 0.005460 -0.002653 
0.000000 0.005500 -0.002653 
0.000086 0.005460 -0.002653 
0.000173 0.005336 -0.002645 
-0.000337 0.005468 -0.005441 
-0.000169 0.005591 -0.005450 
0.000000 0.005632 -0.005450 
0.000169 0.005591 -0.005450 
0.000337 0.005468 -0.005441 
0.000328 0.006482 0.005898 
0.000164 0.006602 0.005909 
0.000000 0.006642 0.005910 
-0.000164 0.006602 0.005909 
-0.000328 0.006482 0.005898 
0.000168 0.006354 0.002873 
0.000084 0.006475 0.002882 
0.000000 0.006515 0.002883 
-0.000083 0.006475 0.002882 
-0.000168 0.006354 0.002873 
0.000000 0.006311 0.000000 
0.000000 0.006434 0.000000 
0.000000 0.006472 0.000000 
0.000000 0.006434 -0.000000 
0.000000 0.006311 -0.000000 
-0.000168 0.006354 -0.002873 
-0.000083 0.006475 -0.002882 
0.000000 0.006515 -0.002883 
0.000084 0.006475 -0.002882 
0.000168 0.006354 -0.002873 
-0.000328 0.006482 -0.005898 
-0.000164 0.006602 -0.005909 
0.000000 0.006642 -0.005910 
0.000164 0.006602 -0.005909 
0.000328 0.006482 -0.005898 
0.000318 0.007572 0.006340 
0.000159 0.007689 0.006353 
0.000000 0.007728 0.006354 
-0.000159 0.007689 0.006353 
-0.000318 0.007572 0.006340 
0.000163 0.007448 0.003094 
0.000081 0.007566 0.003104 
0.000000 0.007605 0.003106 
-0.000081 0.007566 0.003104 
-0.000162 0.007448 0.003094 
0.000000 0.007407 0.000000 
0.000000 0.007526 0.000000 
0.000000 0.007564 0.000000 
0.000000 0.007526 -0.000000 
0.000000 0.007407 -0.000000 
-0.000162 0.007448 -0.003094 
-0.000081 0.007566 -0.003104 
0.000000 0.007605 -0.003106 
0.000081 0.007566 -0.003104 
0.000163 0.007448 -0.003094 
-0.000318 0.007572 -0.006340 
-0.000159 0.007689 -0.006353 
0.000000 0.007728 -0.006354 
0.000159 0.007689 -0.006353 
0.000318 0.007572 -0.006340 
0.000307 0.008734 0.006768 
0.000154 0.008848 0.006781 
0.000000 0.008886 0.006782 
-0.000154 0.008848 0.006781 
-0.000307 0.008734 0.006768 
0.000157 0.008615 0.003308 
0.000078 0.008729 0.003318 
0.000000 0.008767 0.003320 
-0.000078 0.008729 0.003318 
-0.000157 0.008615 0.003307 
0.000000 0.008575 0.000000 
0.000000 0.008690 0.000000 
0.000000 0.008728 0.000000 
0.000000 0.008690 -0.000000 
0.000000 0.008575 -0.000000 
-0.000157 0.008615 -0.003307 
-0.000078 0.008729 -0.003318 
0.000000 0.008767 -0.003320 
0.000078 0.008729 -0.003318 
0.000157 0.008615 -0.003307 
-0.000307 0.008734 -0.006768 
-0.000154 0.008848 -0.006781 
0.000000 0.008886 -0.006782 
0.000154 0.008848 -0.006781 
0.000307 0.008734 -0.006768 
0.000296 0.009967 0.007180 
0.000149 0.010077 0.007194 
0.000000 0.010114 0.007195 
-0.000149 0.010077 0.007194 
-0.000296 0.009967 0.007180 
0.000151 0.009852 0.003513 
0.000075 0.009963 0.003525 
0.000000 0.009999 0.003527 
-0.000075 0.009963 0.003524 
-0.000151 0.009852 0.003513 
0.000000 0.009813 0.000000 
0.000000 0.009925 0.000000 
0.000000 0.009961 0.000000 
0.000000 0.009925 -0.000000 
0.000000 0.009813 -0.000000 
-0.000151 0.009852 -0.003513 
-0.000075 0.009963 -0.003524 
0.000000 0.009999 -0.003527 
0.000075 0.009963 -0.003524 
0.000151 0.009852 -0.003513 
-0.000296 0.009967 -0.007180 
-0.000149 0.010077 -0.007194 
0.000000 0.010114 -0.007195 
0.000149 0.010077 -0.007194 
0.000296 0.009967 -0.007180 
0.000285 0.011268 0.007578 
0.000143 0.011373 0.007592 
0.000000 0.011409 0.007593 
-0.000143 0.011373 0.007592 
-0.000285 0.011268 0.007577 
0.000146 0.011157 0.003712 
0.000072 0.011264 0.003723 
0.000000 0.011299 0.003726 
-0.000072 0.011264 0.003723 
-0.000145 0.011157 0.003712 
0.000000 0.011120 0.000000 
0.000000 0.011228 0.000000 
0.000000 0.011263 0.000000 
0.000000 0.011228 -0.000000 
0.000000 0.011120 -0.000000 
-0.000145 0.011157 -0.003712 
-0.000072 0.011264 -0.003723 
0.000000 0.011299 -0.003726 
0.000072 0.011264 -0.003723 
0.000146 0.011157 -0.003712 
-0.000285 0.011268 -0.007577 
-0.000143 0.011373 -0.007592 
0.000000 0.011409 -0.007593 
0.000143 0.011373 -0.007592 
0.000285 0.011268 -0.007577 
0.000274 0.012633 0.007960 
0.000138 0.012735 0.007974 
0.000000 0.012769 0.007975 
-0.000137 0.012735 0.007974 
-0.000274 0.012633 0.007959 
0.000140 0.012527 0.003903 
0.000070 0.012630 0.003914 
0.000000 0.012664 0.003917 
-0.000069 0.012630 0.003914 
-0.000140 0.012527 0.003903 
0.000000 0.012491 0.000000 
0.000000 0.012595 0.000000 
0.000000 0.012629 0.000000 
0.000000 0.012595 -0.000000 
0.000000 0.012491 -0.000000 
-0.000140 0.012527 -0.003903 
-0.000069 0.012630 -0.003914 
0.000000 0.012664 -0.003917 
0.000070 0.012630 -0.003914 
0.000140 0.012527 -0.003903 
-0.000274 0.012633 -0.007959 
-0.000137 0.012735 -0.007974 
0.000000 0.012769 -0.007975 
0.000138 0.012735 -0.007974 
0.000274 0.012633 -0.007960 
0.000263 0.014061 0.008326 
0.000132 0.014159 0.008341 
0.000000 0.014192 0.008342 
-0.000132 0.014159 0.008341 
-0.000263 0.014061 0.008326 
0.000134 0.013960 0.004086 
0.000067 0.014058 0.004098 
0.000000 0.014091 0.004101 
-0.000066 0.014058 0.004098 
-0.000134 0.013960 0.004086 
0.000000 0.013925 0.000000 
0.000000 0.014025 0.000000 
0.000000 0.014057 0.000000 
0.000000 0.014025 -0.000000 
0.000000 0.013925 -0.000000 
-0.000134 0.013960 -0.004086 
-0.000066 0.014058 -0.004098 
0.000000 0.014091 -0.004100 
0.000067 0.014058 -0.004098 
0.000134 0.013960 -0.004086 
-0.000263 0.014061 -0.008326 
-0.000132 0.014159 -0.008341 
0.000000 0.014192 -0.008342 
0.000132 0.014159 -0.008341 
0.000263 0.014061 -0.008326 
0.000252 0.015550 0.008678 
0.000127 0.015643 0.008693 
0.000000 0.015675 0.008694 
-0.000126 0.015643 0.008693 
-0.000251 0.015550 0.008678 
0.000128 0.015452 0.004262 
0.000064 0.015546 0.004273 
0.000000 0.015578 0.004276 
-0.000064 0.015546 0.004273 
-0.000128 0.015452 0.004262 
0.000000 0.015419 0.000000 
0.000000 0.015515 0.000000 
0.000000 0.015546 0.000000 
0.000000 0.015515 -0.000000 
0.000000 0.015419 -0.000000 
-0.000128 0.015452 -0.004261 
-0.000064 0.015546 -0.004273 
0.000000 0.015578 -0.004276 
0.000064 0.015546 -0.004273 
0.000128 0.015452 -0.004262 
-0.000251 0.015550 -0.008678 
-0.000126 0.015643 -0.008693 
0.000000 0.015675 -0.008694 
0.000127 0.015643 -0.008693 
0.000252 0.015550 -0.008678 
0.000241 0.017095 0.009014 
0.000121 0.017185 0.009029 
0.000000 0.017215 0.009030 
-0.000121 0.017185 0.009029 
-0.000240 0.017095 0.009014 
0.000123 0.017002 0.004430 
0.000061 0.017092 0.004442 
0.000000 0.017122 0.004444 
-0.000061 0.017092 0.004441 
-0.000122 0.017002 0.004430 
0.000000 0.016971 0.000000 
0.000000 0.017062 0.000000 
0.000000 0.017092 0.000000 
0.000000 0.017062 -0.000000 
0.000000 0.016971 -0.000000 
-0.000122 0.017002 -0.004429 
-0.000061 0.017092 -0.004441 
0.000000 0.017122 -0.004444 
0.000061 0.017092 -0.004441 
0.000123 0.017002 -0.004430 
-0.000240 0.017095 -0.009014 
-0.000121 0.017185 -0.009029 
0.000000 0.017215 -0.009030 
0.000121 0.017185 -0.009029 
0.000241 0.017095 -0.009014 
0.000229 0.018696 0.009335 
0.000115 0.018781 0.009350 
0.000000 0.018810 0.009351 
-0.000115 0.018781 0.009350 
-0.000229 0.018696 0.009335 
0.000117 0.018607 0.004590 
0.000058 0.018693 0.004602 
0.000000 0.018722 0.004605 
-0.000058 0.018693 0.004602 
-0.000117 0.018607 0.004590 
0.000000 0.018577 0.000000 
0.000000 0.018664 0.000000 
0.000000 0.018692 0.000000 
0.000000 0.018664 -0.000000 
0.000000 0.018577 -0.000000 
-0.000117 0.018607 -0.004590 
-0.000058 0.018693 -0.004602 
0.000000 0.018722 -0.004605 
0.000058 0.018693 -0.004602 
0.000117 0.018607 -0.004590 
-0.000229 0.018696 -0.009335 
-0.000115 0.018781 -0.009350 
0.000000 0.018810 -0.009351 
0.000115 0.018781 -0.009350 
0.000229 0.018696 -0.009335 
0.000218 0.020348 0.009640 
0.000110 0.020429 0.009655 
0.000000 0.020457 0.009657 
-0.000109 0.020429 0.009655 
-0.000218 0.020348 0.009640 
0.000111 0.020264 0.004743 
0.000055 0.020346 0.004755 
0.000000 0.020373 0.004757 
-0.000055 0.020346 0.004754 
-0.000111 0.020264 0.004743 
0.000000 0.020235 0.000000 
0.000000 0.020318 0.000000 
0.000000 0.020345 0.000000 
0.000000 0.020318 -0.000000 
0.000000 0.020235 -0.000000 
-0.000111 0.020264 -0.004742 
-0.000055 0.020346 -0.004754 
0.000000 0.020373 -0.004757 
0.000055 0.020346 -0.004754 
0.000111 0.020264 -0.004743 
-0.000218 0.020348 -0.009640 
-0.000109 0.020429 -0.009655 
0.000000 0.020457 -0.009657 
0.000110 0.020429 -0.009655 
0.000218 0.020348 -0.009640 
0.000207 0.022051 0.009931 
0.000104 0.022128 0.009946 
0.000000 0.022154 0.009947 
-0.000103 0.022128 0.009945 
-0.000206 0.022051 0.009930 
0.000105 0.021971 0.004888 
0.000052 0.022048 0.004900 
0.000000 0.022074 0.004902 
-0.000052 0.022048 0.004899 
-0.000105 0.021971 0.004887 
0.000000 0.021944 0.000000 
0.000000 0.022022 0.000000 
0.000000 0.022048 0.000000 
0.000000 0.022022 -0.000000 
0.000000 0.021944 -0.000000 
-0.000105 0.021971 -0.004887 
-0.000052 0.022048 -0.004899 
0.000000 0.022074 -0.004902 
0.000053 0.022048 -0.004899 
0.000105 0.021971 -0.004888 
-0.000206 0.022051 -0.009930 
-0.000103 0.022128 -0.009945 
0.000000 0.022154 -0.009947 
0.000104 0.022128 -0.009945 
0.000207 0.022051 -0.009930 
0.000196 0.023800 0.010205 
0.000098 0.023873 0.010220 
0.000000 0.023898 0.010222 
-0.000098 0.023873 0.010220 
-0.000195 0.023800 0.010205 
0.000100 0.023725 0.005025 
0.000050 0.023798 0.005037 
0.000000 0.023822 0.005040 
-0.000049 0.023798 0.005037 
-0.000099 0.023725 0.005025 
0.000000 0.023699 0.000000 
0.000000 0.023773 0.000000 
0.000000 0.023798 0.000000 
0.000000 0.023773 -0.000000 
0.000000 0.023699 -0.000000 
-0.000099 0.023725 -0.005025 
-0.000049 0.023798 -0.005037 
0.000000 0.023822 -0.005040 
0.000050 0.023798 -0.005037 
0.000100 0.023725 -0.005025 
-0.000195 0.023800 -0.010205 
-0.000098 0.023873 -0.010220 
0.000000 0.023898 -0.010222 
0.000098 0.023873 -0.010220 
0.000196 0.023800 -0.010205 
0.000184 0.025594 0.010465 
0.000093 0.025663 0.010480 
0.000000 0.025686 0.010481 
-0.000092 0.025663 0.010479 
-0.000184 0.025594 0.010464 
0.000094 0.025523 0.005154 
0.000047 0.025592 0.005166 
0.000000 0.025615 0.005169 
-0.000046 0.025592 0.005166 
-0.000093 0.025523 0.005154 
0.000000 0.025499 0.000000 
0.000000 0.025569 0.000000 
0.000000 0.025592 0.000000 
0.000000 0.025569 -0.000000 
0.000000 0.025499 -0.000000 
-0.000093 0.025523 -0.005154 
-0.000046 0.025592 -0.005166 
0.000000 0.025615 -0.005169 
0.000047 0.025592 -0.005166 
0.000094 0.025523 -0.005154 
-0.000184 0.025594 -0.010464 
-0.000092 0.025663 -0.010479 
0.000000 0.025686 -0.010481 
0.000093 0.025663 -0.010479 
0.000184 0.025594 -0.010464 
0.000173 0.027431 0.010708 
0.000087 0.027495 0.010723 
0.000000 0.027517 0.010725 
-0.000086 0.027495 0.010723 
-0.000172 0.027431 0.010708 
0.000088 0.027364 0.005276 
0.000044 0.027429 0.005288 
0.000000 0.027450 0.005291 
-0.000043 0.027429 0.005288 
-0.000088 0.027364 0.005276 
0.000000 0.027341 0.000000 
0.000000 0.027407 0.000000 
0.000000 0.027428 0.000000 
0.000000 0.027407 -0.000000 
0.000000 0.027341 -0.000000 
-0.000088 0.027364 -0.005276 
-0.000043 0.027429 -0.005288 
0.000000 0.027450 -0.005291 
0.000044 0.027429 -0.005288 
0.000088 0.027364 -0.005276 
-0.000172 0.027431 -0.010708 
-0.000086 0.027495 -0.010723 
0.000000 0.027517 -0.010725 
0.000087 0.027495 -0.010723 
0.000173 0.027431 -0.010708 
0.000162 0.029306 0.010937 
0.000081 0.029366 0.010952 
0.000000 0.029387 0.010953 
-0.000081 0.029366 0.010952 
-0.000161 0.029306 0.010936 
0.000082 0.029244 0.005390 
0.000041 0.029304 0.005402 
0.000000 0.029325 0.005405 
-0.000040 0.029304 0.005402 
-0.000082 0.029244 0.005390 
0.000000 0.029223 0.000000 
0.000000 0.029284 0.000000 
0.000000 0.029304 0.000000 
0.000000 0.029284 -0.000000 
0.000000 0.029223 -0.000000 
-0.000082 0.029244 -0.005390 
-0.000040 0.029304 -0.005402 
0.000000 0.029325 -0.005405 
0.000041 0.029304 -0.005402 
0.000082 0.029244 -0.005390 
-0.000161 0.029306 -0.010936 
-0.000081 0.029366 -0.010951 
0.000000 0.029387 -0.010953 
0.000081 0.029366 -0.010952 
0.000162 0.029306 -0.010937 
0.000150 0.031219 0.011150 
0.000076 0.031275 0.011165 
0.000000 0.031294 0.011166 
-0.000075 0.031275 0.011164 
-0.000150 0.031219 0.011149 
0.000077 0.031161 0.005497 
0.000038 0.031217 0.005508 
0.000000 0.031236 0.005511 
-0.000038 0.031217 0.005508 
-0.000076 0.031161 0.005496 
0.000000 0.031141 0.000000 
0.000000 0.031198 0.000000 
0.000000 0.031217 0.000000 
0.000000 0.031198 -0.000000 
0.000000 0.031141 -0.000000 
-0.000076 0.031161 -0.005496 