<?xml version="1.0"?>
<VTKFile type="UnstructuredGrid"  version="0.1"  >
<UnstructuredGrid>
<Piece  NumberOfPoints="1025" NumberOfCells="640">
<Points>
<DataArray  type="Float32"  NumberOfComponents="3"  format="ascii">
0.000000 0.000000 0.000000 
0.750000 0.000000 0.000000 
1.500000 0.000000 0.000000 
2.250000 0.000000 0.000000 
3.000000 0.000000 0.000000 
0.000000 0.750000 0.000000 
0.750000 0.750000 0.000000 
1.500000 0.750000 0.000000 
2.250000 0.750000 0.000000 
3.000000 0.750000 0.000000 
0.000000 1.500000 0.000000 
0.750000 1.500000 0.000000 
1.500000 1.500000 0.000000 
2.250000 1.500000 0.000000 
3.000000 1.500000 0.000000 
0.000000 2.250000 0.000000 
0.750000 2.250000 0.000000 
1.500000 2.250000 0.000000 
2.250000 2.250000 0.000000 
3.000000 2.250000 0.000000 
0.000000 3.000000 0.000000 
0.750000 3.000000 0.000000 
1.500000 3.000000 0.000000 
2.250000 3.000000 0.000000 
3.000000 3.000000 0.000000 
0.000000 0.000000 0.250000 
0.750000 0.000000 0.250000 
1.500000 0.000000 0.250000 
2.250000 0.000000 0.250000 
3.000000 0.000000 0.250000 
0.000000 0.750000 0.250000 
0.750000 0.750000 0.250000 
1.500000 0.750000 0.250000 
2.250000 0.750000 0.250000 
3.000000 0.750000 0.250000 
0.000000 1.500000 0.250000 
0.750000 1.500000 0.250000 
1.500000 1.500000 0.250000 
2.250000 1.500000 0.250000 
3.000000 1.500000 0.250000 
0.000000 2.250000 0.250000 
0.750000 2.250000 0.250000 
1.500000 2.250000 0.250000 
2.250000 2.250000 0.250000 
3.000000 2.250000 0.250000 
0.000000 3.000000 0.250000 
0.750000 3.000000 0.250000 
1.500000 3.000000 0.250000 
2.250000 3.000000 0.250000 
3.000000 3.000000 0.250000 
0.000000 0.000000 0.500000 
0.750000 0.000000 0.500000 
1.500000 0.000000 0.500000 
2.250000 0.000000 0.500000 
3.000000 0.000000 0.500000 
0.000000 0.750000 0.500000 
0.750000 0.750000 0.500000 
1.500000 0.750000 0.500000 
2.250000 0.750000 0.500000 
3.000000 0.750000 0.500000 
0.000000 1.500000 0.500000 
0.750000 1.500000 0.500000 
1.500000 1.500000 0.500000 
2.250000 1.500000 0.500000 
3.000000 1.500000 0.500000 
0.000000 2.250000 0.500000 
0.750000 2.250000 0.500000 
1.500000 2.250000 0.500000 
2.250000 2.250000 0.500000 
3.000000 2.250000 0.500000 
0.000000 3.000000 0.500000 
0.750000 3.000000 0.500000 
1.500000 3.000000 0.500000 
2.250000 3.000000 0.500000 
3.000000 3.000000 0.500000 
0.000000 0.000000 0.750000 
0.750000 0.000000 0.750000 
1.500000 0.000000 0.750000 
2.250000 0.000000 0.750000 
3.000000 0.000000 0.750000 
0.000000 0.750000 0.750000 
0.750000 0.750000 0.750000 
1.500000 0.750000 0.750000 
2.250000 0.750000 0.750000 
3.000000 0.750000 0.750000 
0.000000 1.500000 0.750000 
0.750000 1.500000 0.750000 
1.500000 1.500000 0.750000 
2.250000 1.500000 0.750000 
3.000000 1.500000 0.750000 
0.000000 2.250000 0.750000 
0.750000 2.250000 0.750000 
1.500000 2.250000 0.750000 
2.250000 2.250000 0.750000 
3.000000 2.250000 0.750000 
0.000000 3.000000 0.750000 
0.750000 3.000000 0.750000 
1.500000 3.000000 0.750000 
2.250000 3.000000 0.750000 
3.000000 3.000000 0.750000 
0.000000 0.000000 1.000000 
0.750000 0.000000 1.000000 
1.500000 0.000000 1.000000 
2.250000 0.000000 1.000000 
3.000000 0.000000 1.000000 
0.000000 0.750000 1.000000 
0.750000 0.750000 1.000000 
1.500000 0.750000 1.000000 
2.250000 0.750000 1.000000 
3.000000 0.750000 1.000000 
0.000000 1.500000 1.000000 
0.750000 1.500000 1.000000 
1.500000 1.500000 1.000000 
2.250000 1.500000 1.000000 
3.000000 1.500000 1.000000 
0.000000 2.250000 1.000000 
0.750000 2.250000 1.000000 
1.500000 2.250000 1.000000 
2.250000 2.250000 1.000000 
3.000000 2.250000 1.000000 
0.000000 3.000000 1.000000 
0.750000 3.000000 1.000000 
1.500000 3.000000 1.000000 
2.250000 3.000000 1.000000 
3.000000 3.000000 1.000000 
0.000000 0.000000 1.250000 
0.750000 0.000000 1.250000 
1.500000 0.000000 1.250000 
2.250000 0.000000 1.250000 
3.000000 0.000000 1.250000 
0.000000 0.750000 1.250000 
0.750000 0.750000 1.250000 
1.500000 0.750000 1.250000 
2.250000 0.750000 1.250000 
3.000000 0.750000 1.250000 
0.000000 1.500000 1.250000 
0.750000 1.500000 1.250000 
1.500000 1.500000 1.250000 
2.250000 1.500000 1.250000 
3.000000 1.500000 1.250000 
0.000000 2.250000 1.250000 
0.750000 2.250000 1.250000 
1.500000 2.250000 1.250000 
2.250000 2.250000 1.250000 
3.000000 2.250000 1.250000 
0.000000 3.000000 1.250000 
0.750000 3.000000 1.250000 
1.500000 3.000000 1.250000 
2.250000 3.000000 1.250000 
3.000000 3.000000 1.250000 
0.000000 0.000000 1.500000 
0.750000 0.000000 1.500000 
1.500000 0.000000 1.500000 
2.250000 0.000000 1.500000 
3.000000 0.000000 1.500000 
0.000000 0.750000 1.500000 
0.750000 0.750000 1.500000 
1.500000 0.750000 1.500000 
2.250000 0.750000 1.500000 
3.000000 0.750000 1.500000 
0.000000 1.500000 1.500000 
0.750000 1.500000 1.500000 
1.500000 1.500000 1.500000 
2.250000 1.500000 1.500000 
3.000000 1.500000 1.500000 
0.000000 2.250000 1.500000 
0.750000 2.250000 1.500000 
1.500000 2.250000 1.500000 
2.250000 2.250000 1.500000 
3.000000 2.250000 1.500000 
0.000000 3.000000 1.500000 
0.750000 3.000000 1.500000 
1.500000 3.000000 1.500000 
2.250000 3.000000 1.500000 
3.000000 3.000000 1.500000 
0.000000 0.000000 1.750000 
0.750000 0.000000 1.750000 
1.500000 0.000000 1.750000 
2.250000 0.000000 1.750000 
3.000000 0.000000 1.750000 
0.000000 0.750000 1.750000 
0.750000 0.750000 1.750000 
1.500000 0.750000 1.750000 
2.250000 0.750000 1.750000 
3.000000 0.750000 1.750000 
0.000000 1.500000 1.750000 
0.750000 1.500000 1.750000 
1.500000 1.500000 1.750000 
2.250000 1.500000 1.750000 
3.000000 1.500000 1.750000 
0.000000 2.250000 1.750000 
0.750000 2.250000 1.750000 
1.500000 2.250000 1.750000 
2.250000 2.250000 1.750000 
3.000000 2.250000 1.750000 
0.000000 3.000000 1.750000 
0.750000 3.000000 1.750000 
1.500000 3.000000 1.750000 
2.250000 3.000000 1.750000 
3.000000 3.000000 1.750000 
0.000000 0.000000 2.000000 
0.750000 0.000000 2.000000 
1.500000 0.000000 2.000000 
2.250000 0.000000 2.000000 
3.000000 0.000000 2.000000 
0.000000 0.750000 2.000000 
0.750000 0.750000 2.000000 
1.500000 0.750000 2.000000 
2.250000 0.750000 2.000000 
3.000000 0.750000 2.000000 
0.000000 1.500000 2.000000 
0.750000 1.500000 2.000000 
1.500000 1.500000 2.000000 
2.250000 1.500000 2.000000 
3.000000 1.500000 2.000000 
0.000000 2.250000 2.000000 
0.750000 2.250000 2.000000 
1.500000 2.250000 2.000000 
2.250000 2.250000 2.000000 
3.000000 2.250000 2.000000 
0.000000 3.000000 2.000000 
0.750000 3.000000 2.000000 
1.500000 3.000000 2.000000 
2.250000 3.000000 2.000000 
3.000000 3.000000 2.000000 
0.000000 0.000000 2.250000 
0.750000 0.000000 2.250000 
1.500000 0.000000 2.250000 
2.250000 0.000000 2.250000 
3.000000 0.000000 2.250000 
0.000000 0.750000 2.250000 
0.750000 0.750000 2.250000 
1.500000 0.750000 2.250000 
2.250000 0.750000 2.250000 
3.000000 0.750000 2.250000 
0.000000 1.500000 2.250000 
0.750000 1.500000 2.250000 
1.500000 1.500000 2.250000 
2.250000 1.500000 2.250000 
3.000000 1.500000 2.250000 
0.000000 2.250000 2.250000 
0.750000 2.250000 2.250000 
1.500000 2.250000 2.250000 
2.250000 2.250000 2.250000 
3.000000 2.250000 2.250000 
0.000000 3.000000 2.250000 
0.750000 3.000000 2.250000 
1.500000 3.000000 2.250000 
2.250000 3.000000 2.250000 
3.000000 3.000000 2.250000 
0.000000 0.000000 2.500000 
0.750000 0.000000 2.500000 
1.500000 0.000000 2.500000 
2.250000 0.000000 2.500000 
3.000000 0.000000 2.500000 
0.000000 0.750000 2.500000 
0.750000 0.750000 2.500000 
1.500000 0.750000 2.500000 
2.250000 0.750000 2.500000 
3.000000 0.750000 2.500000 
0.000000 1.500000 2.500000 
0.750000 1.500000 2.500000 
1.500000 1.500000 2.500000 
2.250000 1.500000 2.500000 
3.000000 1.500000 2.500000 
0.000000 2.250000 2.500000 
0.750000 2.250000 2.500000 
1.500000 2.250000 2.500000 
2.250000 2.250000 2.500000 
3.000000 2.250000 2.500000 
0.000000 3.000000 2.500000 
0.750000 3.000000 2.500000 
1.500000 3.000000 2.500000 
2.250000 3.000000 2.500000 
3.000000 3.000000 2.500000 
0.000000 0.000000 2.750000 
0.750000 0.000000 2.750000 
1.500000 0.000000 2.750000 
2.250000 0.000000 2.750000 
3.000000 0.000000 2.750000 
0.000000 0.750000 2.750000 
0.750000 0.750000 2.750000 
1.500000 0.750000 2.750000 
2.250000 0.750000 2.750000 
3.000000 0.750000 2.750000 
0.000000 1.500000 2.750000 
0.750000 1.500000 2.750000 
1.500000 1.500000 2.750000 
2.250000 1.500000 2.750000 
3.000000 1.500000 2.750000 
0.000000 2.250000 2.750000 
0.750000 2.250000 2.750000 
1.500000 2.250000 2.750000 
2.250000 2.250000 2.750000 
3.000000 2.250000 2.750000 
0.000000 3.000000 2.750000 
0.750000 3.000000 2.750000 
1.500000 3.000000 2.750000 
2.250000 3.000000 2.750000 
3.000000 3.000000 2.750000 
0.000000 0.000000 3.000000 
0.750000 0.000000 3.000000 
1.500000 0.000000 3.000000 
2.250000 0.000000 3.000000 
3.000000 0.000000 3.000000 
0.000000 0.750000 3.000000 
0.750000 0.750000 3.000000 
1.500000 0.750000 3.000000 
2.250000 0.750000 3.000000 
3.000000 0.750000 3.000000 
0.000000 1.500000 3.000000 
0.750000 1.500000 3.000000 
1.500000 1.500000 3.000000 
2.250000 1.500000 3.000000 
3.000000 1.500000 3.000000 
0.000000 2.250000 3.000000 
0.750000 2.250000 3.000000 
1.500000 2.250000 3.000000 
2.250000 2.250000 3.000000 
3.000000 2.250000 3.000000 
0.000000 3.000000 3.000000 
0.750000 3.000000 3.000000 
1.500000 3.000000 3.000000 
2.250000 3.000000 3.000000 
3.000000 3.000000 3.000000 
0.000000 0.000000 3.250000 
0.750000 0.000000 3.250000 
1.500000 0.000000 3.250000 
2.250000 0.000000 3.250000 
3.000000 0.000000 3.250000 
0.000000 0.750000 3.250000 
0.750000 0.750000 3.250000 
1.500000 0.750000 3.250000 
2.250000 0.750000 3.250000 
3.000000 0.750000 3.250000 
0.000000 1.500000 3.250000 
0.750000 1.500000 3.250000 
1.500000 1.500000 3.250000 
2.250000 1.500000 3.250000 
3.000000 1.500000 3.250000 
0.000000 2.250000 3.250000 
0.750000 2.250000 3.250000 
1.500000 2.250000 3.250000 
2.250000 2.250000 3.250000 
3.000000 2.250000 3.250000 
0.000000 3.000000 3.250000 
0.750000 3.000000 3.250000 
1.500000 3.000000 3.250000 
2.250000 3.000000 3.250000 
[...]
<PointData  Scalars="u">
<DataArray  type="Float32"  Name="VectorField1"  NumberOfComponents="3" format="ascii">
0.000000 0.000000 0.000000 
0.000000 0.000000 0.000000 
0.000000 0.000000 0.000000 
0.000000 0.000000 0.000000 
0.000000 0.000000 0.000000 
0.000000 0.000000 0.000000 
0.000000 0.000000 0.000000 
0.000000 0.000000 0.000000 
0.000000 0.000000 0.000000 
0.000000 0.000000 0.000000 
0.000000 0.000000 0.000000 
0.000000 0.000000 0.000000 
0.000000 0.000000 0.000000 
0.000000 0.000000 0.000000 
0.000000 0.000000 0.000000 
0.000000 0.000000 0.000000 
0.000000 0.000000 0.000000 
0.000000 0.000000 0.000000 
0.000000 0.000000 0.000000 
0.000000 0.000000 0.000000 
0.000000 0.000000 0.000000 
0.000000 0.000000 0.000000 
0.000000 0.000000 0.000000 
0.000000 0.000000 0.000000 
0.000000 0.000000 0.000000 
0.000241 0.000255 0.000943 
0.000062 0.000309 0.000876 
-0.000000 0.000319 0.000897 
-0.000062 0.000309 0.000876 
-0.000241 0.000255 0.000943 
0.000121 0.000089 0.000414 
0.000032 0.000147 0.000362 
0.000000 0.000154 0.000367 
-0.000032 0.000147 0.000362 
-0.000121 0.000089 0.000414 
0.000000 0.000079 0.000000 
0.000000 0.000140 0.000000 
0.000000 0.000149 -0.000000 
0.000000 0.000140 -0.000000 
0.000000 0.000079 -0.000000 
-0.000121 0.000089 -0.000414 
-0.000032 0.000147 -0.000362 
0.000000 0.000154 -0.000367 
0.000032 0.000147 -0.000362 
0.000121 0.000089 -0.000414 
-0.000241 0.000255 -0.000943 
-0.000062 0.000309 -0.000876 
0.000000 0.000319 -0.000897 
0.000062 0.000309 -0.000876 
0.000241 0.000255 -0.000943 
0.000361 0.000579 0.001803 
0.000131 0.000679 0.001729 
0.000000 0.000701 0.001742 
-0.000131 0.000679 0.001729 
-0.000361 0.000578 0.001802 
0.000188 0.000373 0.000822 
0.000069 0.000472 0.000761 
0.000000 0.000491 0.000759 
-0.000069 0.000472 0.000761 
-0.000188 0.000373 0.000821 
0.000000 0.000328 0.000000 
0.000000 0.000430 0.000000 
0.000000 0.000449 -0.000000 
0.000000 0.000430 -0.000000 
0.000000 0.000328 -0.000000 
-0.000188 0.000373 -0.000821 
-0.000069 0.000472 -0.000761 
0.000000 0.000491 -0.000759 
0.000069 0.000472 -0.000761 
0.000188 0.000373 -0.000822 
-0.000361 0.000578 -0.001803 
-0.000131 0.000679 -0.001729 
0.000000 0.000701 -0.001742 
0.000131 0.000679 -0.001729 
0.000361 0.000579 -0.001803 
0.000431 0.001025 0.002618 
0.000182 0.001157 0.002556 
0.000000 0.001191 0.002559 
-0.000181 0.001157 0.002556 
-0.000431 0.001025 0.002617 
0.000226 0.000808 0.001219 
0.000096 0.000937 0.001167 
0.000000 0.000967 0.001160 
-0.000096 0.000937 0.001167 
-0.000226 0.000808 0.001219 
0.000000 0.000745 0.000000 
0.000000 0.000876 0.000000 
0.000000 0.000905 -0.000000 
0.000000 0.000876 -0.000000 
0.000000 0.000745 -0.000000 
-0.000226 0.000808 -0.001219 
-0.000096 0.000937 -0.001167 
0.000000 0.000967 -0.001160 
0.000096 0.000937 -0.001167 
0.000226 0.000808 -0.001219 
-0.000431 0.001025 -0.002617 
-0.000181 0.001157 -0.002556 
0.000000 0.001191 -0.002559 
0.000182 0.001157 -0.002556 
0.000431 0.001025 -0.002618 
0.000472 0.001604 0.003404 
0.000215 0.001757 0.003359 
0.000000 0.001799 0.003357 
-0.000214 0.001757 0.003359 
-0.000472 0.001604 0.003403 
0.000248 0.001385 0.001608 
0.000113 0.001535 0.001569 
0.000000 0.001574 0.001560 
-0.000113 0.001535 0.001569 
-0.000248 0.001385 0.001607 
0.000000 0.001315 0.000000 
0.000000 0.001467 0.000000 
0.000000 0.001504 -0.000000 
0.000000 0.001467 -0.000000 
0.000000 0.001315 -0.000000 
-0.000248 0.001385 -0.001607 
-0.000113 0.001535 -0.001569 
0.000000 0.001574 -0.001560 
0.000113 0.001535 -0.001569 
0.000248 0.001385 -0.001608 
-0.000472 0.001604 -0.003403 
-0.000214 0.001757 -0.003359 
0.000000 0.001799 -0.003357 
0.000215 0.001757 -0.003359 
0.000472 0.001604 -0.003404 
0.000494 0.002315 0.004168 
0.000234 0.002481 0.004139 
0.000000 0.002530 0.004135 
-0.000234 0.002481 0.004139 
-0.000494 0.002315 0.004167 
0.000258 0.002099 0.001986 
0.000123 0.002264 0.001961 
0.000000 0.002309 0.001952 
-0.000123 0.002264 0.001961 
-0.000258 0.002099 0.001986 
0.000000 0.002027 0.000000 
0.000000 0.002193 0.000000 
0.000000 0.002237 -0.000000 
0.000000 0.002193 -0.000000 
0.000000 0.002027 -0.000000 
-0.000258 0.002099 -0.001986 
-0.000123 0.002264 -0.001961 
0.000000 0.002309 -0.001952 
0.000123 0.002264 -0.001961 
0.000258 0.002099 -0.001986 
-0.000494 0.002315 -0.004167 
-0.000234 0.002481 -0.004139 
0.000000 0.002530 -0.004135 
0.000234 0.002481 -0.004139 
0.000494 0.002315 -0.004168 
0.000503 0.003156 0.004912 
0.000244 0.003329 0.004897 
0.000000 0.003383 0.004892 
-0.000244 0.003329 0.004897 
-0.000503 0.003156 0.004912 
0.000262 0.002945 0.002356 
0.000127 0.003118 0.002342 
0.000000 0.003169 0.002335 
-0.000127 0.003118 0.002342 
-0.000262 0.002945 0.002355 
0.000000 0.002874 0.000000 
0.000000 0.003049 0.000000 
0.000000 0.003097 -0.000000 
0.000000 0.003049 -0.000000 
0.000000 0.002874 -0.000000 
-0.000262 0.002945 -0.002355 
-0.000127 0.003118 -0.002342 
0.000000 0.003169 -0.002335 
0.000127 0.003118 -0.002342 
0.000262 0.002945 -0.002356 
-0.000503 0.003156 -0.004912 
-0.000244 0.003329 -0.004897 
0.000000 0.003383 -0.004892 
0.000244 0.003329 -0.004897 
0.000503 0.003156 -0.004912 
0.000503 0.004124 0.005637 
0.000248 0.004301 0.005633 
0.000000 0.004357 0.005629 
-0.000248 0.004301 0.005633 
-0.000503 0.004124 0.005637 
0.000261 0.003919 0.002716 
0.000128 0.004096 0.002711 
0.000000 0.004150 0.002707 
-0.000128 0.004096 0.002711 
-0.000261 0.003919 0.002716 
0.000000 0.003849 0.000000 
0.000000 0.004028 0.000000 
0.000000 0.004080 -0.000000 
0.000000 0.004028 -0.000000 
0.000000 0.003849 -0.000000 
-0.000261 0.003919 -0.002716 
-0.000128 0.004096 -0.002711 
0.000000 0.004150 -0.002707 
0.000128 0.004096 -0.002711 
0.000261 0.003919 -0.002716 
-0.000503 0.004124 -0.005637 
-0.000248 0.004301 -0.005633 
0.000000 0.004357 -0.005629 
0.000248 0.004301 -0.005633 
0.000504 0.004124 -0.005637 
0.000498 0.005214 0.006343 
0.000247 0.005392 0.006347 
0.000000 0.005450 0.006344 
-0.000247 0.005392 0.006347 
-0.000498 0.005214 0.006343 
0.000257 0.005016 0.003067 
0.000127 0.005194 0.003069 
0.000000 0.005249 0.003066 
-0.000127 0.005194 0.003069 
-0.000257 0.005015 0.003067 
0.000000 0.004948 0.000000 
0.000000 0.005128 0.000000 
0.000000 0.005182 -0.000000 
0.000000 0.005128 -0.000000 
0.000000 0.004948 -0.000000 
-0.000257 0.005016 -0.003067 
-0.000127 0.005194 -0.003069 
0.000000 0.005249 -0.003066 
0.000127 0.005194 -0.003069 
0.000257 0.005015 -0.003067 
-0.000498 0.005214 -0.006343 
-0.000247 0.005392 -0.006347 
0.000000 0.005450 -0.006344 
0.000247 0.005392 -0.006347 
0.000498 0.005214 -0.006343 
0.000488 0.006424 0.007029 
0.000244 0.006600 0.007039 
0.000000 0.006658 0.007037 
-0.000243 0.006600 0.007038 
-0.000488 0.006424 0.007029 
0.000251 0.006231 0.003409 
0.000125 0.006408 0.003415 
0.000000 0.006464 0.003414 
-0.000125 0.006408 0.003415 
-0.000251 0.006231 0.003408 
0.000000 0.006166 0.000000 
0.000000 0.006345 0.000000 
0.000000 0.006400 -0.000000 
0.000000 0.006345 -0.000000 
0.000000 0.006166 -0.000000 
-0.000251 0.006231 -0.003408 
-0.000125 0.006408 -0.003415 
0.000000 0.006464 -0.003415 
0.000125 0.006408 -0.003415 
0.000251 0.006231 -0.003409 
-0.000488 0.006424 -0.007029 
-0.000243 0.006600 -0.007038 
0.000000 0.006658 -0.007037 
0.000244 0.006600 -0.007039 
0.000488 0.006424 -0.007029 
0.000476 0.007748 0.007695 
0.000238 0.007921 0.007708 
0.000000 0.007978 0.007708 
-0.000238 0.007921 0.007708 
-0.000476 0.007748 0.007694 
0.000245 0.007561 0.003740 
0.000122 0.007736 0.003750 
0.000000 0.007792 0.003751 
-0.000121 0.007736 0.003750 
-0.000244 0.007561 0.003740 
0.000000 0.007498 0.000000 
0.000000 0.007674 0.000000 
0.000000 0.007730 -0.000000 
0.000000 0.007674 -0.000000 
0.000000 0.007498 -0.000000 
-0.000244 0.007561 -0.003740 
-0.000121 0.007736 -0.003750 
0.000000 0.007792 -0.003751 
0.000122 0.007736 -0.003751 
0.000245 0.007561 -0.003740 
-0.000476 0.007748 -0.007694 
-0.000238 0.007921 -0.007708 
0.000000 0.007978 -0.007708 
0.000238 0.007921 -0.007708 
0.000476 0.007748 -0.007695 
0.000463 0.009182 0.008340 
0.000232 0.009352 0.008356 
0.000000 0.009408 0.008356 
-0.000232 0.009352 0.008356 
-0.000462 0.009182 0.008339 
0.000237 0.009002 0.004062 
0.000118 0.009173 0.004074 
0.000000 0.009228 0.004076 
-0.000118 0.009173 0.004074 
-0.000237 0.009002 0.004062 
0.000000 0.008941 0.000000 
0.000000 0.009114 0.000000 
0.000000 0.009168 -0.000000 
0.000000 0.009114 -0.000000 
0.000000 0.008941 -0.000000 
-0.000237 0.009002 -0.004062 
-0.000118 0.009173 -0.004074 
0.000000 0.009228 -0.004076 
0.000118 0.009173 -0.004074 
0.000237 0.009002 -0.004062 
-0.000462 0.009182 -0.008340 
-0.000232 0.009352 -0.008356 
0.000000 0.009408 -0.008356 
0.000232 0.009352 -0.008356 
0.000463 0.009182 -0.008340 
0.000448 0.010724 0.008964 
0.000225 0.010889 0.008982 
0.000000 0.010944 0.008983 
-0.000225 0.010889 0.008982 
-0.000448 0.010724 0.008963 
0.000229 0.010549 0.004373 
0.000114 0.010716 0.004387 
0.000000 0.010770 0.004390 
-0.000114 0.010716 0.004387 
-0.000229 0.010549 0.004373 
0.000000 0.010491 0.000000 
0.000000 0.010659 0.000000 
0.000000 0.010713 -0.000000 
0.000000 0.010659 -0.000000 
0.000000 0.010491 -0.000000 
-0.000229 0.010549 -0.004373 
-0.000114 0.010716 -0.004387 
0.000000 0.010770 -0.004390 
0.000114 0.010716 -0.004387 
0.000229 0.010549 -0.004373 
-0.000448 0.010724 -0.008963 
-0.000224 0.010889 -0.008982 
0.000000 0.010944 -0.008983 
0.000225 0.010889 -0.008982 
0.000448 0.010724 -0.008964 
0.000433 0.012368 0.009567 
0.000218 0.012528 0.009586 
0.000000 0.012582 0.009587 
-0.000217 0.012528 0.009586 
-0.000433 0.012368 0.009566 
0.000221 0.012200 0.004674 
0.000110 0.012361 0.004689 
0.000000 0.012414 0.004692 
-0.000110 0.012361 0.004689 
-0.000221 0.012200 0.004674 
0.000000 0.012143 0.000000 
0.000000 0.012306 0.000000 
0.000000 0.012359 -0.000000 
0.000000 0.012306 -0.000000 
0.000000 0.012143 -0.000000 
-0.000221 0.012200 -0.004674 
-0.000110 0.012361 -0.004689 
0.000000 0.012414 -0.004692 
0.000110 0.012361 -0.004689 
0.000221 0.012200 -0.004674 
-0.000433 0.012368 -0.009566 
-0.000217 0.012528 -0.009586 
0.000000 0.012582 -0.009587 
0.000218 0.012528 -0.009586 
0.000433 0.012368 -0.009567 
0.000418 0.014112 0.010148 
0.000210 0.014266 0.010168 
0.000000 0.014318 0.010169 
-0.000209 0.014266 0.010168 
-0.000417 0.014111 0.010147 
0.000213 0.013949 0.004965 
0.000106 0.014105 0.004980 
0.000000 0.014157 0.004984 
-0.000106 0.014105 0.004980 
-0.000213 0.013949 0.004964 
0.000000 0.013895 0.000000 
0.000000 0.014052 0.000000 
0.000000 0.014104 -0.000000 
0.000000 0.014052 -0.000000 
0.000000 0.013895 -0.000000 
-0.000213 0.013949 -0.004964 
-0.000106 0.014105 -0.004980 
0.000000 0.014157 -0.004984 
0.000106 0.014105 -0.004980 
0.000213 0.013949 -0.004965 
-0.000417 0.014111 -0.010147 
-0.000209 0.014266 -0.010168 
0.000000 0.014318 -0.010169 
0.000210 0.014266 -0.010168 
0.000418 0.014111 -0.010148 
0.000402 0.015950 0.010708 
0.000202 0.016099 0.010728 
0.000000 0.016149 0.010730 
-0.000201 0.016099 0.010728 
-0.000401 0.015950 0.010707 
0.000205 0.015794 0.005244 
0.000102 0.015945 0.005260 
0.000000 0.015995 0.005264 
-0.000101 0.015945 0.005260 
-0.000204 0.015794 0.005244 
0.000000 0.015742 0.000000 
0.000000 0.015894 0.000000 
0.000000 0.015943 -0.000000 
0.000000 0.015894 -0.000000 
0.000000 0.015742 -0.000000 
-0.000204 0.015794 -0.005244 
-0.000101 0.015945 -0.005260 
0.000000 0.015995 -0.005264 
0.000102 0.015945 -0.005260 
0.000205 0.015794 -0.005244 
-0.000401 0.015950 -0.010707 
-0.000201 0.016099 -0.010728 
0.000000 0.016149 -0.010730 
0.000202 0.016099 -0.010728 
0.000402 0.015950 -0.010708 
0.000386 0.017881 0.011245 
0.000194 0.018024 0.011266 
0.000000 0.018072 0.011268 
-0.000193 0.018024 0.011266 
-0.000385 0.017881 0.011245 
0.000197 0.017731 0.005513 
0.000098 0.017876 0.005529 
0.000000 0.017924 0.005533 
-0.000097 0.017876 0.005529 
-0.000196 0.017731 0.005512 
0.000000 0.017681 0.000000 
0.000000 0.017827 0.000000 
0.000000 0.017874 -0.000000 
0.000000 0.017827 -0.000000 
0.000000 0.017681 -0.000000 
-0.000196 0.017731 -0.005513 
-0.000097 0.017876 -0.005529 
0.000000 0.017924 -0.005533 
0.000098 0.017876 -0.005529 
0.000197 0.017731 -0.005513 
-0.000385 0.017881 -0.011245 
-0.000193 0.018024 -0.011266 
0.000000 0.018072 -0.011268 
0.000194 0.018024 -0.011266 
0.000386 0.017881 -0.011245 
0.000370 0.019899 0.011762 
0.000186 0.020036 0.011783 
0.000000 0.020083 0.011784 
-0.000185 0.020036 0.011782 
-0.000369 0.019899 0.011761 
0.000189 0.019756 0.005771 
0.000094 0.019894 0.005788 
0.000000 0.019941 0.005791 
-0.000093 0.019894 0.005787 
-0.000188 0.019756 0.005770 
0.000000 0.019707 0.000000 
0.000000 0.019847 0.000000 
0.000000 0.019893 -0.000000 
0.000000 0.019847 -0.000000 
0.000000 0.019707 -0.000000 
-0.000188 0.019756 -0.005770 
-0.000093 0.019894 -0.005787 
0.000001 0.019941 -0.005791 
0.000094 0.019894 -0.005788 
0.000189 0.019756 -0.005771 
-0.000369 0.019899 -0.011761 
-0.000185 0.020036 -0.011782 
0.000001 0.020083 -0.011784 
0.000186 0.020036 -0.011783 
0.000370 0.019899 -0.011762 
0.000354 0.022002 0.012256 
0.000178 0.022133 0.012277 
0.000001 0.022178 0.012279 
-0.000177 0.022133 0.012277 
-0.000353 0.022002 0.012255 
0.000181 0.021865 0.006018 
0.000090 0.021997 0.006035 
0.000001 0.022042 0.006039 
-0.000089 0.021997 0.006034 
-0.000180 0.021865 0.006018 
0.000001 0.021818 0.000000 
0.000001 0.021952 0.000000 
0.000001 0.021996 -0.000000 
0.000001 0.021952 -0.000000 
0.000001 0.021818 -0.000000 
-0.000180 0.021865 -0.006018 
-0.000089 0.021997 -0.006034 
0.000001 0.022042 -0.006039 
0.000090 0.021997 -0.006035 
0.000181 0.021865 -0.006018 
-0.000353 0.022002 -0.012255 
-0.000177 0.022133 -0.012277 
0.000001 0.022178 -0.012279 
0.000178 0.022133 -0.012277 
0.000354 0.022002 -0.012256 
0.000338 0.024185 0.012729 
0.000170 0.024311 0.012750 
0.000001 0.024353 0.012752 
-0.000169 0.024311 0.012749 
-0.000337 0.024185 0.012728 
0.000173 0.024054 0.006254 
0.000086 0.024181 0.006271 
0.000001 0.024223 0.006275 
-0.000085 0.024181 0.006271 
-0.000172 0.024054 0.006254 
0.000001 0.024010 0.000000 
0.000001 0.024138 0.000000 
0.000001 0.024180 -0.000000 
0.000001 0.024138 -0.000000 
0.000001 0.024010 -0.000000 
-0.000171 0.024054 -0.006254 
-0.000085 0.024181 -0.006271 
0.000001 0.024223 -0.006275 
0.000086 0.024181 -0.006271 
0.000173 0.024054 -0.006254 
-0.000337 0.024185 -0.012728 
-0.000169 0.024311 -0.012749 
0.000001 0.024353 -0.012752 
0.000170 0.024311 -0.012750 
0.000338 0.024185 -0.012729 
0.000322 0.026446 0.013179 
0.000162 0.026565 0.013200 
0.000001 0.026606 0.013202 
-0.000161 0.026565 0.013200 
-0.000321 0.026446 0.013179 
0.000165 0.026321 0.006480 
0.000082 0.026442 0.006496 
0.000001 0.026482 0.006500 
-0.000081 0.026442 0.006496 
-0.000163 0.026321 0.006479 
0.000001 0.026279 0.000000 
0.000001 0.026401 0.000000 
0.000001 0.026441 -0.000000 
0.000001 0.026401 -0.000000 
0.000001 0.026279 -0.000000 
-0.000163 0.026321 -0.006479 
-0.000081 0.026442 -0.006496 
0.000001 0.026482 -0.006500 
0.000082 0.026442 -0.006496 
0.000165 0.026321 -0.006480 
-0.000321 0.026446 -0.013179 
-0.000161 0.026565 -0.013200 
0.000001 0.026606 -0.013202 
0.000162 0.026565 -0.013200 
0.000322 0.026446 -0.013179 
0.000306 0.028779 0.013608 
0.000154 0.028893 0.013629 
0.000001 0.028932 0.013631 
-0.000153 0.028893 0.013629 
-0.000305 0.028779 0.013607 
0.000156 0.028661 0.006694 
0.000078 0.028776 0.006711 
0.000001 0.028814 0.006715 
-0.000077 0.028776 0.006710 
-0.000155 0.028661 0.006693 
0.000001 0.028621 0.000000 
0.000001 0.028737 0.000000 
0.000001 0.028775 -0.000000 
0.000001 0.028737 -0.000000 
0.000001 0.028621 -0.000000 
-0.000155 0.028661 -0.006693 
-0.000077 0.028776 -0.006710 
0.000001 0.028814 -0.006715 
0.000078 0.028776 -0.006711 
0.000157 0.028661 -0.006694 
-0.000305 0.028779 -0.013607 
-0.000153 0.028893 -0.013629 
0.000001 0.028932 -0.013631 
0.000154 0.028893 -0.013629 
0.000307 0.028779 -0.013608 
0.000291 0.031183 0.014015 
0.000146 0.031291 0.014036 
0.000001 0.031327 0.014038 
-0.000145 0.031290 0.014036 
-0.000289 0.031183 0.014014 
0.000148 0.031070 0.006898 
0.000074 0.031179 0.006914 
0.000001 0.031216 0.006918 
-0.000073 0.031179 0.006914 
-0.000147 0.031070 0.006897 
0.000001 0.031033 0.000000 
0.000001 0.031142 0.000000 
0.000001 0.031178 -0.000000 
0.000001 0.031142 -0.000000 
0.000001 0.031033 -0.000000 
-0.000147 0.031070 -0.006897 
-0.000072 0.031179 -0.006914 
0.000001 0.031216 -0.006918 
0.000074 0.031179 -0.006914 
0.000148 0.031070 -0.006898 
-0.000289 0.031183 -0.014014 
-0.000145 0.031291 -0.014036 
0.000001 0.031327 -0.014038 
0.000146 0.031290 -0.014036 
0.000291 0.031183 -0.014015 
0.000275 0.033652 0.014400 
0.000138 0.033754 0.014421 
0.000001 0.033789 0.014423 
-0.000137 0.033754 0.014421 
-0.000273 0.033652 0.014399 
0.000140 0.033546 0.007090 
0.000070 0.033649 0.007107 
0.000001 0.033683 0.007111 
-0.000068 0.033649 0.007106 
-0.000139 0.033546 0.007089 
0.000001 0.033510 0.000000 
0.000001 0.033614 0.000000 
0.000001 0.033648 -0.000000 
0.000001 0.033614 -0.000000 
0.000001 0.033510 -0.000000 
-0.000139 0.033546 -0.007089 
-0.000068 0.033649 -0.007106 
0.000001 0.033683 -0.007111 
0.000070 0.033649 -0.007107 
0.000140 0.033546 -0.007090 
-0.000273 0.033652 -0.014399 
-0.000137 0.033754 -0.014421 
0.000001 0.033789 -0.014423 
0.000138 0.033754 -0.014421 
0.000275 0.033652 -0.014400 
0.000259 0.036184 0.014763 
0.000130 0.036280 0.014785 
0.000001 0.036312 0.014786 
-0.000129 0.036280 0.014784 
-0.000257 0.036184 0.014763 
0.000132 0.036084 0.007272 
0.000066 0.036181 0.007288 
0.000001 0.036213 0.007292 
-0.000064 0.036181 0.007288 
-0.000130 0.036084 0.007271 
0.000001 0.036051 0.000000 
0.000001 0.036148 0.000000 
0.000001 0.036180 -0.000000 
0.000001 0.036148 -0.000000 
0.000001 0.036050 -0.000000 
-0.000130 0.036084 -0.007271 
-0.000064 0.036181 -0.007288 
0.000001 0.036213 -0.007292 
0.000066 0.036181 -0.007288 
0.000132 0.036084 -0.007272 
-0.000257 0.036184 -0.014763 
-0.000128 0.036280 -0.014784 
0.000001 0.036312 -0.014786 
0.000130 0.036280 -0.014785 
0.000259 0.036184 -0.014763 
0.000243 0.038775 0.015105 
0.000122 0.038865 0.015126 
0.000001 0.038895 0.015128 
-0.000120 0.038865 0.015125 
-0.000241 0.038775 0.015104 
0.000124 0.038681 0.007442 
0.000062 0.038772 0.007459 
0.000001 0.038802 0.007463 
-0.000060 0.038772 0.007458 
-0.000122 0.038681 0.007441 
0.000001 0.038649 0.000000 
0.000001 0.038741 0.000000 
0.000001 0.038771 -0.000000 
0.000001 0.038741 -0.000000 
0.000001 0.038649 -0.000000 
-0.000122 0.038681 -0.007441 
-0.000060 0.038772 -0.007459 
0.000001 0.038802 -0.007463 
0.000062 0.038772 -0.007459 
0.000124 0.038681 -0.007442 
-0.000241 0.038775 -0.015104 
-0.000120 0.038865 -0.015125 
0.000001 0.038895 -0.015128 
0.000122 0.038865 -0.015126 
0.000243 0.038775 -0.015105 
0.000227 0.041420 0.015424 
0.000114 0.041504 0.015445 
0.000001 0.041533 0.015447 
-0.000112 0.041504 0.015445 
-0.000225 0.041420 0.015423 
0.000116 0.041333 0.007602 
0.000058 0.041418 0.007619 
0.000001 0.041446 0.007623 
-0.000056 0.041418 0.007618 
-0.000114 0.041333 0.007601 
0.000001 0.041304 0.000000 
0.000001 0.041389 0.000000 
0.000001 0.041417 -0.000000 
0.000001 0.041389 -0.000000 
0.000001 0.041303 -0.000000 
-0.000114 0.041333 -0.007601 
-0.000056 0.041418 -0.007618 
0.000001 0.041446 -0.007623 
0.000058 0.041418 -0.007619 
0.000116 0.041333 -0.007602 
-0.000224 0.041420 -0.015423 
-0.000112 0.041504 -0.015445 
0.000001 0.041533 -0.015447 
0.000114 0.041504 -0.015445 
0.000227 0.041420 -0.015424 
0.000211 0.044118 0.015722 
0.000106 0.044196 0.015743 
0.000001 0.044222 0.015745 
-0.000104 0.044195 0.015742 
-0.000208 0.044118 0.015721 
0.000108 0.044036 0.007751 
0.000054 0.044115 0.007767 
0.000001 0.044141 0.007771 
-0.000052 0.044115 0.007767 
-0.000106 0.044036 0.007750 
0.000001 0.044009 0.000000 
0.000001 0.044088 0.000000 
0.000001 0.044115 -0.000000 
0.000001 0.044088 -0.000000 
0.000001 0.044009 -0.000000 