<?xml version="1.0"?>
<VTKFile type="UnstructuredGrid"  version="0.1"  >
<UnstructuredGrid>
<Piece  NumberOfPoints="1025" NumberOfCells="640">
<Points>
<DataArray  type="Float32"  NumberOfComponents="3"  format="ascii">
0.000000 0.000000 0.000000 
0.750000 0.000000 0.000000 
1.500000 0.000000 0.000000 
2.250000 0.000000 0.000000 
3.000000 0.000000 0.000000 
0.000000 0.750000 0.000000 
0.750000 0.750000 0.000000 
1.500000 0.750000 0.000000 
2.250000 0.750000 0.000000 
3.000000 0.750000 0.000000 
0.000000 1.500000 0.000000 
0.750000 1.500000 0.000000 
1.500000 1.500000 0.000000 
2.250000 1.500000 0.000000 
3.000000 1.500000 0.000000 
0.000000 2.250000 0.000000 
0.750000 2.250000 0.000000 
1.500000 2.250000 0.000000 
2.250000 2.250000 0.000000 
3.000000 2.250000 0.000000 
0.000000 3.000000 0.000000 
0.750000 3.000000 0.000000 
1.500000 3.000000 0.000000 
2.250000 3.000000 0.000000 
3.000000 3.000000 0.000000 
0.000000 0.000000 0.250000 
0.750000 0.000000 0.250000 
1.500000 0.000000 0.250000 
2.250000 0.000000 0.250000 
3.000000 0.000000 0.250000 
0.000000 0.750000 0.250000 
0.750000 0.750000 0.250000 
1.500000 0.750000 0.250000 
2.250000 0.750000 0.250000 
3.000000 0.750000 0.250000 
0.000000 1.500000 0.250000 
0.750000 1.500000 0.250000 
1.500000 1.500000 0.250000 
2.250000 1.500000 0.250000 
3.000000 1.500000 0.250000 
0.000000 2.250000 0.250000 
0.750000 2.250000 0.250000 
1.500000 2.250000 0.250000 
2.250000 2.250000 0.250000 
3.000000 2.250000 0.250000 
0.000000 3.000000 0.250000 
0.750000 3.000000 0.250000 
1.500000 3.000000 0.250000 
2.250000 3.000000 0.250000 
3.000000 3.000000 0.250000 
0.000000 0.000000 0.500000 
0.750000 0.000000 0.500000 
1.500000 0.000000 0.500000 
2.250000 0.000000 0.500000 
3.000000 0.000000 0.500000 
0.000000 0.750000 0.500000 
0.750000 0.750000 0.500000 
1.500000 0.750000 0.500000 
2.250000 0.750000 0.500000 
3.000000 0.750000 0.500000 
0.000000 1.500000 0.500000 
0.750000 1.500000 0.500000 
1.500000 1.500000 0.500000 
2.250000 1.500000 0.500000 
3.000000 1.500000 0.500000 
0.000000 2.250000 0.500000 
0.750000 2.250000 0.500000 
1.500000 2.250000 0.500000 
2.250000 2.250000 0.500000 
3.000000 2.250000 0.500000 
0.000000 3.000000 0.500000 
0.750000 3.000000 0.500000 
1.500000 3.000000 0.500000 
2.250000 3.000000 0.500000 
3.000000 3.000000 0.500000 
0.000000 0.000000 0.750000 
0.750000 0.000000 0.750000 
1.500000 0.000000 0.750000 
2.250000 0.000000 0.750000 
3.000000 0.000000 0.750000 
0.000000 0.750000 0.750000 
0.750000 0.750000 0.750000 
1.500000 0.750000 0.750000 
2.250000 0.750000 0.750000 
3.000000 0.750000 0.750000 
0.000000 1.500000 0.750000 
0.750000 1.500000 0.750000 
1.500000 1.500000 0.750000 
2.250000 1.500000 0.750000 
3.000000 1.500000 0.750000 
0.000000 2.250000 0.750000 
0.750000 2.250000 0.750000 
1.500000 2.250000 0.750000 
2.250000 2.250000 0.750000 
3.000000 2.250000 0.750000 
0.000000 3.000000 0.750000 
0.750000 3.000000 0.750000 
1.500000 3.000000 0.750000 
2.250000 3.000000 0.750000 
3.000000 3.000000 0.750000 
0.000000 0.000000 1.000000 
0.750000 0.000000 1.000000 
1.500000 0.000000 1.000000 
2.250000 0.000000 1.000000 
3.000000 0.000000 1.000000 
0.000000 0.750000 1.000000 
0.750000 0.750000 1.000000 
1.500000 0.750000 1.000000 
2.250000 0.750000 1.000000 
3.000000 0.750000 1.000000 
0.000000 1.500000 1.000000 
0.750000 1.500000 1.000000 
1.500000 1.500000 1.000000 
2.250000 1.500000 1.000000 
3.000000 1.500000 1.000000 
0.000000 2.250000 1.000000 
0.750000 2.250000 1.000000 
1.500000 2.250000 1.000000 
2.250000 2.250000 1.000000 
3.000000 2.250000 1.000000 
0.000000 3.000000 1.000000 
0.750000 3.000000 1.000000 
1.500000 3.000000 1.000000 
2.250000 3.000000 1.000000 
3.000000 3.000000 1.000000 
0.000000 0.000000 1.250000 
0.750000 0.000000 1.250000 
1.500000 0.000000 1.250000 
2.250000 0.000000 1.250000 
3.000000 0.000000 1.250000 
0.000000 0.750000 1.250000 
0.750000 0.750000 1.250000 
1.500000 0.750000 1.250000 
2.250000 0.750000 1.250000 
3.000000 0.750000 1.250000 
0.000000 1.500000 1.250000 
0.750000 1.500000 1.250000 
1.500000 1.500000 1.250000 
2.250000 1.500000 1.250000 
3.000000 1.500000 1.250000 
0.000000 2.250000 1.250000 
0.750000 2.250000 1.250000 
1.500000 2.250000 1.250000 
2.250000 2.250000 1.250000 
3.000000 2.250000 1.250000 
0.000000 3.000000 1.250000 
0.750000 3.000000 1.250000 
1.500000 3.000000 1.250000 
2.250000 3.000000 1.250000 
3.000000 3.000000 1.250000 
0.000000 0.000000 1.500000 
0.750000 0.000000 1.500000 
1.500000 0.000000 1.500000 
2.250000 0.000000 1.500000 
3.000000 0.000000 1.500000 
0.000000 0.750000 1.500000 
0.750000 0.750000 1.500000 
1.500000 0.750000 1.500000 
2.250000 0.750000 1.500000 
3.000000 0.750000 1.500000 
0.000000 1.500000 1.500000 
0.750000 1.500000 1.500000 
1.500000 1.500000 1.500000 
2.250000 1.500000 1.500000 
3.000000 1.500000 1.500000 
0.000000 2.250000 1.500000 
0.750000 2.250000 1.500000 
1.500000 2.250000 1.500000 
2.250000 2.250000 1.500000 
3.000000 2.250000 1.500000 
0.000000 3.000000 1.500000 
0.750000 3.000000 1.500000 
1.500000 3.000000 1.500000 
2.250000 3.000000 1.500000 
3.000000 3.000000 1.500000 
0.000000 0.000000 1.750000 
0.750000 0.000000 1.750000 
1.500000 0.000000 1.750000 
2.250000 0.000000 1.750000 
3.000000 0.000000 1.750000 
0.000000 0.750000 1.750000 
0.750000 0.750000 1.750000 
1.500000 0.750000 1.750000 
2.250000 0.750000 1.750000 
3.000000 0.750000 1.750000 
0.000000 1.500000 1.750000 
0.750000 1.500000 1.750000 
1.500000 1.500000 1.750000 
2.250000 1.500000 1.750000 
3.000000 1.500000 1.750000 
0.000000 2.250000 1.750000 
0.750000 2.250000 1.750000 
1.500000 2.250000 1.750000 
2.250000 2.250000 1.750000 
3.000000 2.250000 1.750000 
0.000000 3.000000 1.750000 
0.750000 3.000000 1.750000 
1.500000 3.000000 1.750000 
2.250000 3.000000 1.750000 
3.000000 3.000000 1.750000 
0.000000 0.000000 2.000000 
0.750000 0.000000 2.000000 
1.500000 0.000000 2.000000 
2.250000 0.000000 2.000000 
3.000000 0.000000 2.000000 
0.000000 0.750000 2.000000 
0.750000 0.750000 2.000000 
1.500000 0.750000 2.000000 
2.250000 0.750000 2.000000 
3.000000 0.750000 2.000000 
0.000000 1.500000 2.000000 
0.750000 1.500000 2.000000 
1.500000 1.500000 2.000000 
2.250000 1.500000 2.000000 
3.000000 1.500000 2.000000 
0.000000 2.250000 2.000000 
0.750000 2.250000 2.000000 
1.500000 2.250000 2.000000 
2.250000 2.250000 2.000000 
3.000000 2.250000 2.000000 
0.000000 3.000000 2.000000 
0.750000 3.000000 2.000000 
1.500000 3.000000 2.000000 
2.250000 3.000000 2.000000 
3.000000 3.000000 2.000000 
0.000000 0.000000 2.250000 
0.750000 0.000000 2.250000 
1.500000 0.000000 2.250000 
2.250000 0.000000 2.250000 
3.000000 0.000000 2.250000 
0.000000 0.750000 2.250000 
0.750000 0.750000 2.250000 
1.500000 0.750000 2.250000 
2.250000 0.750000 2.250000 
3.000000 0.750000 2.250000 
0.000000 1.500000 2.250000 
0.750000 1.500000 2.250000 
1.500000 1.500000 2.250000 
2.250000 1.500000 2.250000 
3.000000 1.500000 2.250000 
0.000000 2.250000 2.250000 
0.750000 2.250000 2.250000 
1.500000 2.250000 2.250000 
2.250000 2.250000 2.250000 
3.000000 2.250000 2.250000 
0.000000 3.000000 2.250000 
0.750000 3.000000 2.250000 
1.500000 3.000000 2.250000 
2.250000 3.000000 2.250000 
3.000000 3.000000 2.250000 
0.000000 0.000000 2.500000 
0.750000 0.000000 2.500000 
1.500000 0.000000 2.500000 
2.250000 0.000000 2.500000 
3.000000 0.000000 2.500000 
0.000000 0.750000 2.500000 
0.750000 0.750000 2.500000 
1.500000 0.750000 2.500000 
2.250000 0.750000 2.500000 
3.000000 0.750000 2.500000 
0.000000 1.500000 2.500000 
0.750000 1.500000 2.500000 
1.500000 1.500000 2.500000 
2.250000 1.500000 2.500000 
3.000000 1.500000 2.500000 
0.000000 2.250000 2.500000 
0.750000 2.250000 2.500000 
1.500000 2.250000 2.500000 
2.250000 2.250000 2.500000 
3.000000 2.250000 2.500000 
0.000000 3.000000 2.500000 
0.750000 3.000000 2.500000 
1.500000 3.000000 2.500000 
2.250000 3.000000 2.500000 
3.000000 3.000000 2.500000 
0.000000 0.000000 2.750000 
0.750000 0.000000 2.750000 
1.500000 0.000000 2.750000 
2.250000 0.000000 2.750000 
3.000000 0.000000 2.750000 
0.000000 0.750000 2.750000 
0.750000 0.750000 2.750000 
1.500000 0.750000 2.750000 
2.250000 0.750000 2.750000 
3.000000 0.750000 2.750000 
0.000000 1.500000 2.750000 
0.750000 1.500000 2.750000 
1.500000 1.500000 2.750000 
2.250000 1.500000 2.750000 
3.000000 1.500000 2.750000 
0.000000 2.250000 2.750000 
0.750000 2.250000 2.750000 
1.500000 2.250000 2.750000 
2.250000 2.250000 2.750000 
3.000000 2.250000 2.750000 
0.000000 3.000000 2.750000 
0.750000 3.000000 2.750000 
1.500000 3.000000 2.750000 
2.250000 3.000000 2.750000 
3.000000 3.000000 2.750000 
0.000000 0.000000 3.000000 
0.750000 0.000000 3.000000 
1.500000 0.000000 3.000000 
2.250000 0.000000 3.000000 
3.000000 0.000000 3.000000 
0.000000 0.750000 3.000000 
0.750000 0.750000 3.000000 
1.500000 0.750000 3.000000 
2.250000 0.750000 3.000000 
3.000000 0.750000 3.000000 
0.000000 1.500000 3.000000 
0.750000 1.500000 3.000000 
1.500000 1.500000 3.000000 
2.250000 1.500000 3.000000 
3.000000 1.500000 3.000000 
0.000000 2.250000 3.000000 
0.750000 2.250000 3.000000 
1.500000 2.250000 3.000000 
2.250000 2.250000 3.000000 
3.000000 2.250000 3.000000 
0.000000 3.000000 3.000000 
0.750000 3.000000 3.000000 
1.500000 3.000000 3.000000 
2.250000 3.000000 3.000000 
3.000000 3.000000 3.000000 
0.000000 0.000000 3.250000 
0.750000 0.000000 3.250000 
1.500000 0.000000 3.250000 
2.250000 0.000000 3.250000 
3.000000 0.000000 3.250000 
0.000000 0.750000 3.250000 
0.750000 0.750000 3.250000 
1.500000 0.750000 3.250000 
2.250000 0.750000 3.250000 
3.000000 0.750000 3.250000 
0.000000 1.500000 3.250000 
0.750000 1.500000 3.250000 
1.500000 1.500000 3.250000 
2.250000 1.500000 3.250000 
3.000000 1.500000 3.250000 
0.000000 2.250000 3.250000 
0.750000 2.250000 3.250000 
1.500000 2.250000 3.250000 
2.250000 2.250000 3.250000 
3.000000 2.250000 3.250000 
0.000000 3.000000 3.250000 
0.750000 3.000000 3.250000 
1.500000 3.000000 3.250000 
2.250000 3.000000 3.250000 
[...]
<PointData  Scalars="u">
<DataArray  type="Float32"  Name="VectorField1"  NumberOfComponents="3" format="ascii">
0.000000 0.000000 0.000000 
0.000000 0.000000 0.000000 
0.000000 0.000000 0.000000 
0.000000 0.000000 0.000000 
0.000000 0.000000 0.000000 
0.000000 0.000000 0.000000 
0.000000 0.000000 0.000000 
0.000000 0.000000 0.000000 
0.000000 0.000000 0.000000 
0.000000 0.000000 0.000000 
0.000000 0.000000 0.000000 
0.000000 0.000000 0.000000 
0.000000 0.000000 0.000000 
0.000000 0.000000 0.000000 
0.000000 0.000000 0.000000 
0.000000 0.000000 0.000000 
0.000000 0.000000 0.000000 
0.000000 0.000000 0.000000 
0.000000 0.000000 0.000000 
0.000000 0.000000 0.000000 
0.000000 0.000000 0.000000 
0.000000 0.000000 0.000000 
0.000000 0.000000 0.000000 
0.000000 0.000000 0.000000 
0.000000 0.000000 0.000000 
0.000107 0.000114 0.000418 
0.000027 0.000138 0.000388 
0.000000 0.000142 0.000398 
-0.000027 0.000138 0.000388 
-0.000107 0.000114 0.000418 
0.000053 0.000040 0.000183 
0.000014 0.000066 0.000160 
-0.000000 0.000069 0.000162 
-0.000014 0.000066 0.000160 
-0.000053 0.000040 0.000183 
-0.000000 0.000036 -0.000000 
-0.000000 0.000063 -0.000000 
-0.000000 0.000067 0.000000 
-0.000000 0.000063 0.000000 
-0.000000 0.000036 0.000000 
-0.000053 0.000040 -0.000183 
-0.000014 0.000066 -0.000160 
-0.000000 0.000069 -0.000162 
0.000014 0.000066 -0.000160 
0.000053 0.000040 -0.000183 
-0.000107 0.000114 -0.000418 
-0.000027 0.000138 -0.000388 
-0.000000 0.000142 -0.000398 
0.000027 0.000138 -0.000388 
0.000107 0.000114 -0.000418 
0.000160 0.000258 0.000798 
0.000058 0.000302 0.000766 
-0.000000 0.000312 0.000772 
-0.000058 0.000302 0.000766 
-0.000160 0.000258 0.000798 
0.000083 0.000167 0.000363 
0.000030 0.000211 0.000336 
-0.000000 0.000219 0.000335 
-0.000030 0.000211 0.000336 
-0.000083 0.000167 0.000363 
-0.000000 0.000147 -0.000000 
-0.000000 0.000192 -0.000000 
-0.000000 0.000201 0.000000 
-0.000000 0.000192 0.000000 
-0.000000 0.000147 0.000000 
-0.000083 0.000167 -0.000363 
-0.000030 0.000211 -0.000336 
-0.000000 0.000219 -0.000335 
0.000030 0.000211 -0.000336 
0.000083 0.000167 -0.000363 
-0.000160 0.000258 -0.000798 
-0.000058 0.000302 -0.000766 
-0.000000 0.000312 -0.000772 
0.000058 0.000302 -0.000766 
0.000160 0.000258 -0.000798 
0.000191 0.000457 0.001159 
0.000080 0.000515 0.001132 
-0.000000 0.000530 0.001133 
-0.000080 0.000515 0.001132 
-0.000191 0.000457 0.001159 
0.000100 0.000361 0.000539 
0.000042 0.000418 0.000516 
-0.000000 0.000431 0.000513 
-0.000042 0.000418 0.000516 
-0.000100 0.000361 0.000539 
-0.000000 0.000333 -0.000000 
-0.000000 0.000391 -0.000000 
-0.000000 0.000404 0.000000 
-0.000000 0.000391 0.000000 
-0.000000 0.000333 0.000000 
-0.000100 0.000361 -0.000539 
-0.000042 0.000418 -0.000516 
-0.000000 0.000431 -0.000513 
0.000042 0.000418 -0.000516 
0.000100 0.000361 -0.000539 
-0.000191 0.000457 -0.001159 
-0.000080 0.000515 -0.001132 
-0.000000 0.000530 -0.001133 
0.000080 0.000515 -0.001132 
0.000191 0.000457 -0.001159 
0.000209 0.000714 0.001506 
0.000095 0.000782 0.001487 
-0.000000 0.000800 0.001486 
-0.000095 0.000782 0.001487 
-0.000209 0.000714 0.001506 
0.000109 0.000618 0.000710 
0.000050 0.000684 0.000694 
-0.000000 0.000701 0.000689 
-0.000050 0.000684 0.000694 
-0.000109 0.000618 0.000711 
-0.000000 0.000587 -0.000000 
-0.000000 0.000654 -0.000000 
-0.000000 0.000670 0.000000 
-0.000000 0.000654 0.000000 
-0.000000 0.000587 0.000000 
-0.000109 0.000618 -0.000711 
-0.000050 0.000684 -0.000694 
-0.000000 0.000701 -0.000689 
0.000050 0.000684 -0.000694 
0.000109 0.000618 -0.000710 
-0.000209 0.000714 -0.001506 
-0.000095 0.000782 -0.001487 
-0.000000 0.000800 -0.001486 
0.000095 0.000782 -0.001487 
0.000209 0.000714 -0.001506 
0.000218 0.001030 0.001844 
0.000103 0.001103 0.001831 
-0.000000 0.001125 0.001830 
-0.000103 0.001103 0.001832 
-0.000218 0.001030 0.001844 
0.000114 0.000935 0.000878 
0.000054 0.001007 0.000867 
-0.000000 0.001027 0.000863 
-0.000054 0.001007 0.000867 
-0.000114 0.000935 0.000878 
-0.000000 0.000903 -0.000000 
-0.000000 0.000976 -0.000000 
-0.000000 0.000995 0.000000 
-0.000000 0.000976 0.000000 
-0.000000 0.000903 0.000000 
-0.000114 0.000935 -0.000878 
-0.000054 0.001007 -0.000867 
-0.000000 0.001027 -0.000863 
0.000054 0.001007 -0.000867 
0.000114 0.000935 -0.000878 
-0.000218 0.001030 -0.001844 
-0.000103 0.001103 -0.001832 
-0.000000 0.001125 -0.001830 
0.000103 0.001103 -0.001831 
0.000218 0.001030 -0.001844 
0.000222 0.001403 0.002172 
0.000108 0.001479 0.002166 
-0.000000 0.001503 0.002164 
-0.000108 0.001479 0.002166 
-0.000222 0.001403 0.002172 
0.000115 0.001310 0.001041 
0.000056 0.001386 0.001035 
-0.000000 0.001408 0.001032 
-0.000056 0.001386 0.001035 
-0.000116 0.001310 0.001041 
-0.000000 0.001278 -0.000000 
-0.000000 0.001356 -0.000000 
-0.000000 0.001377 0.000000 
-0.000000 0.001356 0.000000 
-0.000000 0.001278 0.000000 
-0.000116 0.001310 -0.001041 
-0.000056 0.001386 -0.001035 
-0.000000 0.001408 -0.001032 
0.000056 0.001386 -0.001035 
0.000115 0.001310 -0.001041 
-0.000222 0.001403 -0.002172 
-0.000108 0.001479 -0.002166 
-0.000000 0.001503 -0.002164 
0.000108 0.001479 -0.002166 
0.000222 0.001403 -0.002172 
0.000222 0.001832 0.002492 
0.000109 0.001910 0.002491 
-0.000000 0.001935 0.002489 
-0.000109 0.001910 0.002491 
-0.000222 0.001832 0.002492 
0.000115 0.001742 0.001200 
0.000057 0.001820 0.001198 
-0.000000 0.001843 0.001196 
-0.000057 0.001820 0.001198 
-0.000115 0.001742 0.001200 
-0.000000 0.001711 -0.000000 
-0.000000 0.001790 -0.000000 
-0.000000 0.001813 0.000000 
-0.000000 0.001790 0.000000 
-0.000000 0.001711 0.000000 
-0.000115 0.001742 -0.001200 
-0.000057 0.001820 -0.001198 
-0.000000 0.001843 -0.001196 
0.000057 0.001820 -0.001198 
0.000115 0.001742 -0.001200 
-0.000222 0.001832 -0.002492 
-0.000109 0.001910 -0.002491 
-0.000000 0.001935 -0.002489 
0.000109 0.001910 -0.002491 
0.000222 0.001832 -0.002492 
0.000219 0.002315 0.002803 
0.000109 0.002393 0.002805 
-0.000000 0.002419 0.002804 
-0.000109 0.002393 0.002805 
-0.000219 0.002315 0.002803 
0.000113 0.002227 0.001354 
0.000056 0.002306 0.001355 
-0.000000 0.002330 0.001354 
-0.000056 0.002306 0.001355 
-0.000113 0.002227 0.001354 
-0.000000 0.002198 -0.000000 
-0.000000 0.002277 -0.000000 
-0.000000 0.002301 0.000000 
-0.000000 0.002277 0.000000 
-0.000000 0.002198 0.000000 
-0.000113 0.002227 -0.001354 
-0.000056 0.002306 -0.001355 
-0.000000 0.002330 -0.001354 
0.000056 0.002306 -0.001355 
0.000113 0.002227 -0.001354 
-0.000219 0.002315 -0.002803 
-0.000109 0.002393 -0.002805 
-0.000000 0.002419 -0.002804 
0.000109 0.002393 -0.002805 
0.000219 0.002315 -0.002803 
0.000215 0.002850 0.003105 
0.000107 0.002928 0.003110 
-0.000000 0.002953 0.003109 
-0.000107 0.002928 0.003110 
-0.000215 0.002850 0.003105 
0.000110 0.002766 0.001505 
0.000055 0.002843 0.001508 
-0.000000 0.002868 0.001508 
-0.000055 0.002844 0.001508 
-0.000111 0.002766 0.001505 
-0.000000 0.002737 -0.000000 
-0.000000 0.002816 -0.000000 
-0.000000 0.002840 0.000000 
-0.000000 0.002816 0.000000 
-0.000000 0.002737 0.000000 
-0.000111 0.002766 -0.001505 
-0.000055 0.002843 -0.001508 
-0.000000 0.002868 -0.001508 
0.000055 0.002843 -0.001508 
0.000110 0.002766 -0.001505 
-0.000215 0.002850 -0.003105 
-0.000107 0.002928 -0.003110 
-0.000000 0.002953 -0.003109 
0.000107 0.002928 -0.003110 
0.000215 0.002850 -0.003105 
0.000209 0.003436 0.003398 
0.000105 0.003512 0.003404 
-0.000000 0.003538 0.003404 
-0.000105 0.003512 0.003405 
-0.000209 0.003436 0.003398 
0.000107 0.003354 0.001651 
0.000053 0.003431 0.001655 
-0.000000 0.003456 0.001656 
-0.000054 0.003431 0.001655 
-0.000108 0.003354 0.001651 
-0.000000 0.003326 -0.000000 
-0.000000 0.003404 -0.000000 
-0.000000 0.003428 0.000000 
-0.000000 0.003404 0.000000 
-0.000000 0.003326 0.000000 
-0.000108 0.003354 -0.001651 
-0.000054 0.003431 -0.001655 
-0.000000 0.003456 -0.001656 
0.000053 0.003431 -0.001655 
0.000107 0.003354 -0.001651 
-0.000209 0.003436 -0.003398 
-0.000105 0.003512 -0.003405 
-0.000000 0.003538 -0.003404 
0.000105 0.003512 -0.003404 
0.000209 0.003436 -0.003398 
0.000203 0.004071 0.003682 
0.000102 0.004145 0.003689 
-0.000000 0.004170 0.003689 
-0.000102 0.004145 0.003689 
-0.000203 0.004071 0.003682 
0.000104 0.003991 0.001792 
0.000052 0.004066 0.001798 
-0.000000 0.004091 0.001799 
-0.000052 0.004066 0.001798 
-0.000104 0.003991 0.001792 
-0.000000 0.003965 -0.000000 
-0.000000 0.004040 -0.000000 
-0.000000 0.004065 0.000000 
-0.000000 0.004040 0.000000 
-0.000000 0.003965 0.000000 
-0.000104 0.003991 -0.001792 
-0.000052 0.004066 -0.001798 
-0.000000 0.004091 -0.001799 
0.000052 0.004066 -0.001798 
0.000104 0.003991 -0.001792 
-0.000203 0.004071 -0.003682 
-0.000102 0.004145 -0.003689 
-0.000000 0.004170 -0.003689 
0.000102 0.004145 -0.003689 
0.000203 0.004071 -0.003682 
0.000197 0.004752 0.003956 
0.000099 0.004824 0.003964 
-0.000000 0.004849 0.003964 
-0.000099 0.004824 0.003964 
-0.000197 0.004752 0.003956 
0.000100 0.004676 0.001929 
0.000050 0.004749 0.001935 
-0.000000 0.004773 0.001936 
-0.000050 0.004749 0.001935 
-0.000101 0.004676 0.001929 
-0.000000 0.004650 -0.000000 
-0.000000 0.004723 -0.000000 
-0.000000 0.004747 0.000000 
-0.000000 0.004723 0.000000 
-0.000000 0.004650 0.000000 
-0.000101 0.004676 -0.001929 
-0.000050 0.004749 -0.001935 
-0.000000 0.004773 -0.001936 
0.000050 0.004749 -0.001935 
0.000100 0.004676 -0.001929 
-0.000197 0.004752 -0.003956 
-0.000099 0.004824 -0.003964 
-0.000000 0.004849 -0.003964 
0.000099 0.004824 -0.003964 
0.000196 0.004752 -0.003956 
0.000190 0.005479 0.004220 
0.000095 0.005549 0.004229 
-0.000000 0.005572 0.004229 
-0.000095 0.005549 0.004229 
-0.000190 0.005479 0.004220 
0.000097 0.005405 0.002061 
0.000048 0.005476 0.002068 
-0.000000 0.005499 0.002069 
-0.000048 0.005476 0.002068 
-0.000097 0.005405 0.002061 
-0.000000 0.005380 -0.000000 
-0.000000 0.005451 -0.000000 
-0.000000 0.005474 0.000000 
-0.000000 0.005451 0.000000 
-0.000000 0.005380 0.000000 
-0.000097 0.005405 -0.002061 
-0.000048 0.005476 -0.002068 
-0.000000 0.005499 -0.002069 
0.000048 0.005476 -0.002068 
0.000097 0.005405 -0.002061 
-0.000190 0.005479 -0.004220 
-0.000095 0.005549 -0.004229 
-0.000000 0.005572 -0.004229 
0.000095 0.005549 -0.004229 
0.000190 0.005479 -0.004220 
0.000183 0.006248 0.004475 
0.000092 0.006316 0.004484 
-0.000000 0.006339 0.004484 
-0.000092 0.006316 0.004484 
-0.000183 0.006249 0.004475 
0.000093 0.006177 0.002188 
0.000046 0.006246 0.002195 
-0.000000 0.006268 0.002197 
-0.000047 0.006246 0.002195 
-0.000093 0.006178 0.002188 
-0.000000 0.006154 -0.000000 
-0.000000 0.006223 -0.000000 
-0.000000 0.006245 0.000000 
-0.000000 0.006223 0.000000 
-0.000000 0.006154 0.000000 
-0.000093 0.006178 -0.002188 
-0.000047 0.006246 -0.002195 
-0.000000 0.006268 -0.002197 
0.000046 0.006246 -0.002195 
0.000093 0.006178 -0.002188 
-0.000183 0.006248 -0.004475 
-0.000092 0.006316 -0.004484 
-0.000000 0.006339 -0.004484 
0.000092 0.006316 -0.004484 
0.000183 0.006249 -0.004475 
0.000175 0.007060 0.004719 
0.000088 0.007125 0.004729 
-0.000000 0.007147 0.004730 
-0.000088 0.007125 0.004729 
-0.000176 0.007060 0.004720 
0.000089 0.006992 0.002310 
0.000044 0.007058 0.002318 
-0.000000 0.007080 0.002319 
-0.000045 0.007058 0.002318 
-0.000090 0.006992 0.002311 
-0.000000 0.006969 -0.000000 
-0.000000 0.007035 -0.000000 
-0.000000 0.007057 0.000000 
-0.000000 0.007035 0.000000 
-0.000000 0.006969 0.000000 
-0.000090 0.006992 -0.002311 
-0.000045 0.007058 -0.002318 
-0.000000 0.007080 -0.002319 
0.000044 0.007058 -0.002318 
0.000089 0.006992 -0.002310 
-0.000176 0.007060 -0.004720 
-0.000088 0.007125 -0.004729 
-0.000000 0.007147 -0.004730 
0.000088 0.007125 -0.004729 
0.000175 0.007060 -0.004719 
0.000168 0.007912 0.004955 
0.000084 0.007974 0.004964 
-0.000000 0.007995 0.004965 
-0.000085 0.007974 0.004964 
-0.000169 0.007912 0.004955 
0.000086 0.007846 0.002428 
0.000043 0.007910 0.002435 
-0.000000 0.007931 0.002437 
-0.000043 0.007910 0.002436 
-0.000086 0.007846 0.002428 
-0.000000 0.007824 -0.000000 
-0.000000 0.007888 -0.000000 
-0.000000 0.007909 0.000000 
-0.000000 0.007888 0.000000 
-0.000000 0.007824 0.000000 
-0.000086 0.007846 -0.002428 
-0.000043 0.007910 -0.002436 
-0.000000 0.007931 -0.002437 
0.000042 0.007910 -0.002435 
0.000086 0.007846 -0.002428 
-0.000169 0.007912 -0.004955 
-0.000085 0.007974 -0.004964 
-0.000000 0.007995 -0.004965 
0.000084 0.007974 -0.004964 
0.000168 0.007912 -0.004955 
0.000161 0.008802 0.005180 
0.000081 0.008862 0.005189 
-0.000000 0.008882 0.005190 
-0.000081 0.008862 0.005190 
-0.000162 0.008802 0.005180 
0.000082 0.008739 0.002541 
0.000041 0.008800 0.002548 
-0.000000 0.008820 0.002550 
-0.000041 0.008800 0.002548 
-0.000082 0.008739 0.002541 
-0.000000 0.008718 -0.000000 
-0.000000 0.008779 -0.000000 
-0.000000 0.008799 0.000000 
-0.000000 0.008779 0.000000 
-0.000000 0.008718 0.000000 
-0.000082 0.008739 -0.002541 
-0.000041 0.008800 -0.002548 
-0.000000 0.008820 -0.002550 
0.000041 0.008800 -0.002548 
0.000082 0.008739 -0.002541 
-0.000162 0.008802 -0.005180 
-0.000081 0.008862 -0.005190 
-0.000000 0.008882 -0.005190 
0.000081 0.008862 -0.005189 
0.000161 0.008802 -0.005180 
0.000154 0.009729 0.005395 
0.000077 0.009786 0.005405 
-0.000000 0.009805 0.005406 
-0.000078 0.009786 0.005405 
-0.000154 0.009729 0.005396 
0.000078 0.009669 0.002648 
0.000039 0.009727 0.002656 
-0.000000 0.009746 0.002658 
-0.000039 0.009727 0.002656 
-0.000079 0.009669 0.002649 
-0.000000 0.009648 -0.000000 
-0.000000 0.009707 -0.000000 
-0.000000 0.009726 0.000000 
-0.000000 0.009707 0.000000 
-0.000000 0.009649 0.000000 
-0.000079 0.009669 -0.002649 
-0.000039 0.009727 -0.002656 
-0.000000 0.009746 -0.002658 
0.000039 0.009727 -0.002656 
0.000078 0.009669 -0.002648 
-0.000154 0.009729 -0.005396 
-0.000078 0.009786 -0.005405 
-0.000000 0.009805 -0.005406 
0.000077 0.009786 -0.005405 
0.000154 0.009729 -0.005395 
0.000147 0.010690 0.005601 
0.000074 0.010745 0.005611 
-0.000000 0.010764 0.005612 
-0.000074 0.010745 0.005611 
-0.000147 0.010690 0.005601 
0.000075 0.010633 0.002751 
0.000037 0.010688 0.002759 
-0.000000 0.010707 0.002761 
-0.000037 0.010689 0.002759 
-0.000075 0.010633 0.002752 
-0.000000 0.010614 -0.000000 
-0.000000 0.010670 -0.000000 
-0.000000 0.010688 0.000000 
-0.000000 0.010670 0.000000 
-0.000000 0.010614 0.000000 
-0.000075 0.010633 -0.002752 
-0.000037 0.010688 -0.002759 
-0.000000 0.010707 -0.002761 
0.000037 0.010688 -0.002759 
0.000075 0.010633 -0.002751 
-0.000147 0.010690 -0.005601 
-0.000074 0.010745 -0.005611 
-0.000000 0.010764 -0.005612 
0.000074 0.010745 -0.005611 
0.000147 0.010690 -0.005601 
0.000140 0.011686 0.005797 
0.000070 0.011738 0.005807 
-0.000000 0.011755 0.005808 
-0.000071 0.011738 0.005807 
-0.000140 0.011686 0.005797 
0.000071 0.011631 0.002849 
0.000035 0.011684 0.002857 
-0.000000 0.011701 0.002859 
-0.000036 0.011684 0.002857 
-0.000072 0.011631 0.002850 
-0.000000 0.011613 -0.000000 
-0.000000 0.011666 -0.000000 
-0.000000 0.011683 0.000000 
-0.000000 0.011666 0.000000 
-0.000000 0.011613 0.000000 
-0.000072 0.011631 -0.002850 
-0.000036 0.011684 -0.002857 
-0.000000 0.011701 -0.002859 
0.000035 0.011684 -0.002857 
0.000071 0.011631 -0.002849 
-0.000140 0.011686 -0.005797 
-0.000071 0.011738 -0.005807 
-0.000000 0.011755 -0.005808 
0.000070 0.011738 -0.005807 
0.000139 0.011686 -0.005797 
0.000132 0.012713 0.005983 
0.000066 0.012762 0.005993 
-0.000000 0.012779 0.005994 
-0.000067 0.012762 0.005993 
-0.000133 0.012713 0.005983 
0.000067 0.012661 0.002942 
0.000033 0.012711 0.002950 
-0.000000 0.012728 0.002952 
-0.000034 0.012711 0.002950 
-0.000068 0.012661 0.002943 
-0.000000 0.012644 -0.000000 
-0.000000 0.012694 -0.000000 
-0.000000 0.012711 0.000000 
-0.000000 0.012694 0.000000 
-0.000000 0.012644 0.000000 
-0.000068 0.012661 -0.002943 
-0.000034 0.012711 -0.002950 
-0.000000 0.012728 -0.002952 
0.000033 0.012711 -0.002950 
0.000067 0.012661 -0.002942 
-0.000133 0.012713 -0.005983 
-0.000067 0.012762 -0.005993 
-0.000000 0.012779 -0.005994 
0.000066 0.012762 -0.005993 
0.000132 0.012713 -0.005983 
0.000125 0.013770 0.006159 
0.000063 0.013816 0.006169 
-0.000000 0.013832 0.006170 
-0.000063 0.013816 0.006169 
-0.000126 0.013770 0.006160 
0.000064 0.013721 0.003031 
0.000031 0.013768 0.003038 
-0.000000 0.013784 0.003040 
-0.000032 0.013768 0.003038 
-0.000064 0.013721 0.003031 
-0.000000 0.013705 -0.000000 
-0.000000 0.013752 -0.000000 
-0.000000 0.013768 0.000000 
-0.000000 0.013752 0.000000 
-0.000000 0.013705 0.000000 
-0.000064 0.013721 -0.003031 
-0.000032 0.013768 -0.003038 
-0.000000 0.013784 -0.003040 
0.000031 0.013768 -0.003038 
0.000064 0.013721 -0.003031 
-0.000126 0.013770 -0.006160 
-0.000063 0.013816 -0.006169 
-0.000000 0.013832 -0.006170 
0.000063 0.013816 -0.006169 
0.000125 0.013770 -0.006159 
0.000118 0.014855 0.006326 
0.000059 0.014899 0.006336 
-0.000000 0.014914 0.006337 
-0.000060 0.014899 0.006336 
-0.000119 0.014855 0.006326 
0.000060 0.014809 0.003114 
0.000030 0.014854 0.003122 
-0.000000 0.014869 0.003124 
-0.000030 0.014854 0.003122 
-0.000061 0.014809 0.003114 
-0.000000 0.014794 -0.000000 
-0.000000 0.014839 -0.000000 
-0.000000 0.014854 0.000000 
-0.000000 0.014839 0.000000 
-0.000000 0.014794 0.000000 
-0.000061 0.014809 -0.003114 
-0.000030 0.014854 -0.003122 
-0.000000 0.014869 -0.003124 
0.000030 0.014854 -0.003122 
0.000060 0.014809 -0.003114 
-0.000119 0.014855 -0.006326 
-0.000060 0.014899 -0.006336 
-0.000000 0.014914 -0.006337 
0.000059 0.014899 -0.006336 
0.000118 0.014855 -0.006326 
0.000111 0.015968 0.006483 
0.000055 0.016009 0.006492 
-0.000000 0.016023 0.006493 
-0.000056 0.016009 0.006493 
-0.000112 0.015968 0.006483 
0.000056 0.015925 0.003193 
0.000028 0.015966 0.003200 
-0.000000 0.015980 0.003202 
-0.000029 0.015966 0.003200 
-0.000057 0.015925 0.003193 
-0.000000 0.015910 -0.000000 
-0.000000 0.015952 -0.000000 
-0.000000 0.015966 0.000000 
-0.000000 0.015952 0.000000 
-0.000000 0.015910 0.000000 
-0.000057 0.015925 -0.003193 
-0.000029 0.015966 -0.003200 
-0.000000 0.015980 -0.003202 
0.000028 0.015966 -0.003200 
0.000056 0.015925 -0.003192 
-0.000112 0.015968 -0.006483 
-0.000056 0.016009 -0.006493 
-0.000000 0.016023 -0.006493 
0.000055 0.016009 -0.006492 
0.000111 0.015968 -0.006483 
0.000104 0.017106 0.006630 
0.000052 0.017144 0.006639 
-0.000000 0.017158 0.006641 
-0.000053 0.017144 0.006640 
-0.000105 0.017106 0.006630 
0.000053 0.017065 0.003266 
0.000026 0.017104 0.003274 
-0.000000 0.017117 0.003276 
-0.000027 0.017104 0.003274 
-0.000054 0.017065 0.003267 
-0.000000 0.017051 -0.000000 
-0.000000 0.017091 -0.000000 
-0.000000 0.017104 0.000000 
-0.000000 0.017091 0.000000 
-0.000000 0.017051 0.000000 
-0.000054 0.017065 -0.003267 
-0.000027 0.017104 -0.003274 
-0.000000 0.017117 -0.003276 
0.000026 0.017104 -0.003274 
0.000053 0.017065 -0.003266 
-0.000105 0.017106 -0.006630 
-0.000053 0.017144 -0.006640 
-0.000000 0.017158 -0.006641 
0.000052 0.017144 -0.006639 
0.000104 0.017106 -0.006630 
0.000097 0.018267 0.006767 
0.000048 0.018303 0.006777 
-0.000000 0.018315 0.006778 
-0.000049 0.018303 0.006777 
-0.000098 0.018267 0.006768 
0.000049 0.018229 0.003335 
0.000024 0.018266 0.003343 
-0.000000 0.018278 0.003344 
-0.000025 0.018266 0.003343 
-0.000050 0.018229 0.003335 
-0.000000 0.018216 -0.000000 
-0.000000 0.018253 -0.000000 
-0.000000 0.018265 0.000000 
-0.000000 0.018253 0.000000 
-0.000000 0.018217 0.000000 
-0.000050 0.018229 -0.003335 
-0.000025 0.018266 -0.003343 
-0.000001 0.018278 -0.003344 
0.000024 0.018266 -0.003343 
0.000049 0.018229 -0.003335 
-0.000098 0.018267 -0.006768 
-0.000049 0.018303 -0.006777 
-0.000001 0.018315 -0.006778 
0.000048 0.018303 -0.006777 
0.000097 0.018267 -0.006767 
0.000089 0.019450 0.006895 
0.000045 0.019484 0.006905 
-0.000001 0.019495 0.006906 
-0.000046 0.019484 0.006905 
-0.000090 0.019450 0.006895 
0.000045 0.019415 0.003399 
0.000022 0.019449 0.003406 
-0.000001 0.019461 0.003408 