<?xml version="1.0"?>
<VTKFile type="UnstructuredGrid"  version="0.1"  >
<UnstructuredGrid>
<Piece  NumberOfPoints="1025" NumberOfCells="640">
<Points>
<DataArray  type="Float32"  NumberOfComponents="3"  format="ascii">
0.000000 0.000000 0.000000 
0.750000 0.000000 0.000000 
1.500000 0.000000 0.000000 
2.250000 0.000000 0.000000 
3.000000 0.000000 0.000000 
0.000000 0.750000 0.000000 
0.750000 0.750000 0.000000 
1.500000 0.750000 0.000000 
2.250000 0.750000 0.000000 
3.000000 0.750000 0.000000 
0.000000 1.500000 0.000000 
0.750000 1.500000 0.000000 
1.500000 1.500000 0.000000 
2.250000 1.500000 0.000000 
3.000000 1.500000 0.000000 
0.000000 2.250000 0.000000 
0.750000 2.250000 0.000000 
1.500000 2.250000 0.000000 
2.250000 2.250000 0.000000 
3.000000 2.250000 0.000000 
0.000000 3.000000 0.000000 
0.750000 3.000000 0.000000 
1.500000 3.000000 0.000000 
2.250000 3.000000 0.000000 
3.000000 3.000000 0.000000 
0.000000 0.000000 0.250000 
0.750000 0.000000 0.250000 
1.500000 0.000000 0.250000 
2.250000 0.000000 0.250000 
3.000000 0.000000 0.250000 
0.000000 0.750000 0.250000 
0.750000 0.750000 0.250000 
1.500000 0.750000 0.250000 
2.250000 0.750000 0.250000 
3.000000 0.750000 0.250000 
0.000000 1.500000 0.250000 
0.750000 1.500000 0.250000 
1.500000 1.500000 0.250000 
2.250000 1.500000 0.250000 
3.000000 1.500000 0.250000 
0.000000 2.250000 0.250000 
0.750000 2.250000 0.250000 
1.500000 2.250000 0.250000 
2.250000 2.250000 0.250000 
3.000000 2.250000 0.250000 
0.000000 3.000000 0.250000 
0.750000 3.000000 0.250000 
1.500000 3.000000 0.250000 
2.250000 3.000000 0.250000 
3.000000 3.000000 0.250000 
0.000000 0.000000 0.500000 
0.750000 0.000000 0.500000 
1.500000 0.000000 0.500000 
2.250000 0.000000 0.500000 
3.000000 0.000000 0.500000 
0.000000 0.750000 0.500000 
0.750000 0.750000 0.500000 
1.500000 0.750000 0.500000 
2.250000 0.750000 0.500000 
3.000000 0.750000 0.500000 
0.000000 1.500000 0.500000 
0.750000 1.500000 0.500000 
1.500000 1.500000 0.500000 
2.250000 1.500000 0.500000 
3.000000 1.500000 0.500000 
0.000000 2.250000 0.500000 
0.750000 2.250000 0.500000 
1.500000 2.250000 0.500000 
2.250000 2.250000 0.500000 
3.000000 2.250000 0.500000 
0.000000 3.000000 0.500000 
0.750000 3.000000 0.500000 
1.500000 3.000000 0.500000 
2.250000 3.000000 0.500000 
3.000000 3.000000 0.500000 
0.000000 0.000000 0.750000 
0.750000 0.000000 0.750000 
1.500000 0.000000 0.750000 
2.250000 0.000000 0.750000 
3.000000 0.000000 0.750000 
0.000000 0.750000 0.750000 
0.750000 0.750000 0.750000 
1.500000 0.750000 0.750000 
2.250000 0.750000 0.750000 
3.000000 0.750000 0.750000 
0.000000 1.500000 0.750000 
0.750000 1.500000 0.750000 
1.500000 1.500000 0.750000 
2.250000 1.500000 0.750000 
3.000000 1.500000 0.750000 
0.000000 2.250000 0.750000 
0.750000 2.250000 0.750000 
1.500000 2.250000 0.750000 
2.250000 2.250000 0.750000 
3.000000 2.250000 0.750000 
0.000000 3.000000 0.750000 
0.750000 3.000000 0.750000 
1.500000 3.000000 0.750000 
2.250000 3.000000 0.750000 
3.000000 3.000000 0.750000 
0.000000 0.000000 1.000000 
0.750000 0.000000 1.000000 
1.500000 0.000000 1.000000 
2.250000 0.000000 1.000000 
3.000000 0.000000 1.000000 
0.000000 0.750000 1.000000 
0.750000 0.750000 1.000000 
1.500000 0.750000 1.000000 
2.250000 0.750000 1.000000 
3.000000 0.750000 1.000000 
0.000000 1.500000 1.000000 
0.750000 1.500000 1.000000 
1.500000 1.500000 1.000000 
2.250000 1.500000 1.000000 
3.000000 1.500000 1.000000 
0.000000 2.250000 1.000000 
0.750000 2.250000 1.000000 
1.500000 2.250000 1.000000 
2.250000 2.250000 1.000000 
3.000000 2.250000 1.000000 
0.000000 3.000000 1.000000 
0.750000 3.000000 1.000000 
1.500000 3.000000 1.000000 
2.250000 3.000000 1.000000 
3.000000 3.000000 1.000000 
0.000000 0.000000 1.250000 
0.750000 0.000000 1.250000 
1.500000 0.000000 1.250000 
2.250000 0.000000 1.250000 
3.000000 0.000000 1.250000 
0.000000 0.750000 1.250000 
0.750000 0.750000 1.250000 
1.500000 0.750000 1.250000 
2.250000 0.750000 1.250000 
3.000000 0.750000 1.250000 
0.000000 1.500000 1.250000 
0.750000 1.500000 1.250000 
1.500000 1.500000 1.250000 
2.250000 1.500000 1.250000 
3.000000 1.500000 1.250000 
0.000000 2.250000 1.250000 
0.750000 2.250000 1.250000 
1.500000 2.250000 1.250000 
2.250000 2.250000 1.250000 
3.000000 2.250000 1.250000 
0.000000 3.000000 1.250000 
0.750000 3.000000 1.250000 
1.500000 3.000000 1.250000 
2.250000 3.000000 1.250000 
3.000000 3.000000 1.250000 
0.000000 0.000000 1.500000 
0.750000 0.000000 1.500000 
1.500000 0.000000 1.500000 
2.250000 0.000000 1.500000 
3.000000 0.000000 1.500000 
0.000000 0.750000 1.500000 
0.750000 0.750000 1.500000 
1.500000 0.750000 1.500000 
2.250000 0.750000 1.500000 
3.000000 0.750000 1.500000 
0.000000 1.500000 1.500000 
0.750000 1.500000 1.500000 
1.500000 1.500000 1.500000 
2.250000 1.500000 1.500000 
3.000000 1.500000 1.500000 
0.000000 2.250000 1.500000 
0.750000 2.250000 1.500000 
1.500000 2.250000 1.500000 
2.250000 2.250000 1.500000 
3.000000 2.250000 1.500000 
0.000000 3.000000 1.500000 
0.750000 3.000000 1.500000 
1.500000 3.000000 1.500000 
2.250000 3.000000 1.500000 
3.000000 3.000000 1.500000 
0.000000 0.000000 1.750000 
0.750000 0.000000 1.750000 
1.500000 0.000000 1.750000 
2.250000 0.000000 1.750000 
3.000000 0.000000 1.750000 
0.000000 0.750000 1.750000 
0.750000 0.750000 1.750000 
1.500000 0.750000 1.750000 
2.250000 0.750000 1.750000 
3.000000 0.750000 1.750000 
0.000000 1.500000 1.750000 
0.750000 1.500000 1.750000 
1.500000 1.500000 1.750000 
2.250000 1.500000 1.750000 
3.000000 1.500000 1.750000 
0.000000 2.250000 1.750000 
0.750000 2.250000 1.750000 
1.500000 2.250000 1.750000 
2.250000 2.250000 1.750000 
3.000000 2.250000 1.750000 
0.000000 3.000000 1.750000 
0.750000 3.000000 1.750000 
1.500000 3.000000 1.750000 
2.250000 3.000000 1.750000 
3.000000 3.000000 1.750000 
0.000000 0.000000 2.000000 
0.750000 0.000000 2.000000 
1.500000 0.000000 2.000000 
2.250000 0.000000 2.000000 
3.000000 0.000000 2.000000 
0.000000 0.750000 2.000000 
0.750000 0.750000 2.000000 
1.500000 0.750000 2.000000 
2.250000 0.750000 2.000000 
3.000000 0.750000 2.000000 
0.000000 1.500000 2.000000 
0.750000 1.500000 2.000000 
1.500000 1.500000 2.000000 
2.250000 1.500000 2.000000 
3.000000 1.500000 2.000000 
0.000000 2.250000 2.000000 
0.750000 2.250000 2.000000 
1.500000 2.250000 2.000000 
2.250000 2.250000 2.000000 
3.000000 2.250000 2.000000 
0.000000 3.000000 2.000000 
0.750000 3.000000 2.000000 
1.500000 3.000000 2.000000 
2.250000 3.000000 2.000000 
3.000000 3.000000 2.000000 
0.000000 0.000000 2.250000 
0.750000 0.000000 2.250000 
1.500000 0.000000 2.250000 
2.250000 0.000000 2.250000 
3.000000 0.000000 2.250000 
0.000000 0.750000 2.250000 
0.750000 0.750000 2.250000 
1.500000 0.750000 2.250000 
2.250000 0.750000 2.250000 
3.000000 0.750000 2.250000 
0.000000 1.500000 2.250000 
0.750000 1.500000 2.250000 
1.500000 1.500000 2.250000 
2.250000 1.500000 2.250000 
3.000000 1.500000 2.250000 
0.000000 2.250000 2.250000 
0.750000 2.250000 2.250000 
1.500000 2.250000 2.250000 
2.250000 2.250000 2.250000 
3.000000 2.250000 2.250000 
0.000000 3.000000 2.250000 
0.750000 3.000000 2.250000 
1.500000 3.000000 2.250000 
2.250000 3.000000 2.250000 
3.000000 3.000000 2.250000 
0.000000 0.000000 2.500000 
0.750000 0.000000 2.500000 
1.500000 0.000000 2.500000 
2.250000 0.000000 2.500000 
3.000000 0.000000 2.500000 
0.000000 0.750000 2.500000 
0.750000 0.750000 2.500000 
1.500000 0.750000 2.500000 
2.250000 0.750000 2.500000 
3.000000 0.750000 2.500000 
0.000000 1.500000 2.500000 
0.750000 1.500000 2.500000 
1.500000 1.500000 2.500000 
2.250000 1.500000 2.500000 
3.000000 1.500000 2.500000 
0.000000 2.250000 2.500000 
0.750000 2.250000 2.500000 
1.500000 2.250000 2.500000 
2.250000 2.250000 2.500000 
3.000000 2.250000 2.500000 
0.000000 3.000000 2.500000 
0.750000 3.000000 2.500000 
1.500000 3.000000 2.500000 
2.250000 3.000000 2.500000 
3.000000 3.000000 2.500000 
0.000000 0.000000 2.750000 
0.750000 0.000000 2.750000 
1.500000 0.000000 2.750000 
2.250000 0.000000 2.750000 
3.000000 0.000000 2.750000 
0.000000 0.750000 2.750000 
0.750000 0.750000 2.750000 
1.500000 0.750000 2.750000 
2.250000 0.750000 2.750000 
3.000000 0.750000 2.750000 
0.000000 1.500000 2.750000 
0.750000 1.500000 2.750000 
1.500000 1.500000 2.750000 
2.250000 1.500000 2.750000 
3.000000 1.500000 2.750000 
0.000000 2.250000 2.750000 
0.750000 2.250000 2.750000 
1.500000 2.250000 2.750000 
2.250000 2.250000 2.750000 
3.000000 2.250000 2.750000 
0.000000 3.000000 2.750000 
0.750000 3.000000 2.750000 
1.500000 3.000000 2.750000 
2.250000 3.000000 2.750000 
3.000000 3.000000 2.750000 
0.000000 0.000000 3.000000 
0.750000 0.000000 3.000000 
1.500000 0.000000 3.000000 
2.250000 0.000000 3.000000 
3.000000 0.000000 3.000000 
0.000000 0.750000 3.000000 
0.750000 0.750000 3.000000 
1.500000 0.750000 3.000000 
2.250000 0.750000 3.000000 
3.000000 0.750000 3.000000 
0.000000 1.500000 3.000000 
0.750000 1.500000 3.000000 
1.500000 1.500000 3.000000 
2.250000 1.500000 3.000000 
3.000000 1.500000 3.000000 
0.000000 2.250000 3.000000 
0.750000 2.250000 3.000000 
1.500000 2.250000 3.000000 
2.250000 2.250000 3.000000 
3.000000 2.250000 3.000000 
0.000000 3.000000 3.000000 
0.750000 3.000000 3.000000 
1.500000 3.000000 3.000000 
2.250000 3.000000 3.000000 
3.000000 3.000000 3.000000 
0.000000 0.000000 3.250000 
0.750000 0.000000 3.250000 
1.500000 0.000000 3.250000 
2.250000 0.000000 3.250000 
3.000000 0.000000 3.250000 
0.000000 0.750000 3.250000 
0.750000 0.750000 3.250000 
1.500000 0.750000 3.250000 
2.250000 0.750000 3.250000 
3.000000 0.750000 3.250000 
0.000000 1.500000 3.250000 
0.750000 1.500000 3.250000 
1.500000 1.500000 3.250000 
2.250000 1.500000 3.250000 
3.000000 1.500000 3.250000 
0.000000 2.250000 3.250000 
0.750000 2.250000 3.250000 
1.500000 2.250000 3.250000 
2.250000 2.250000 3.250000 
3.000000 2.250000 3.250000 
0.000000 3.000000 3.250000 
0.750000 3.000000 3.250000 
1.500000 3.000000 3.250000 
2.250000 3.000000 3.250000 
[...]
<PointData  Scalars="u">
<DataArray  type="Float32"  Name="VectorField1"  NumberOfComponents="3" format="ascii">
0.000000 0.000000 0.000000 
0.000000 0.000000 0.000000 
0.000000 0.000000 0.000000 
0.000000 0.000000 0.000000 
0.000000 0.000000 0.000000 
0.000000 0.000000 0.000000 
0.000000 0.000000 0.000000 
0.000000 0.000000 0.000000 
0.000000 0.000000 0.000000 
0.000000 0.000000 0.000000 
0.000000 0.000000 0.000000 
0.000000 0.000000 0.000000 
0.000000 0.000000 0.000000 
0.000000 0.000000 0.000000 
0.000000 0.000000 0.000000 
0.000000 0.000000 0.000000 
0.000000 0.000000 0.000000 
0.000000 0.000000 0.000000 
0.000000 0.000000 0.000000 
0.000000 0.000000 0.000000 
0.000000 0.000000 0.000000 
0.000000 0.000000 0.000000 
0.000000 0.000000 0.000000 
0.000000 0.000000 0.000000 
0.000000 0.000000 0.000000 
0.000099 0.000106 0.000390 
0.000025 0.000129 0.000362 
0.000000 0.000133 0.000371 
-0.000025 0.000129 0.000362 
-0.000099 0.000106 0.000390 
0.000050 0.000038 0.000171 
0.000013 0.000062 0.000149 
0.000000 0.000065 0.000151 
-0.000013 0.000062 0.000149 
-0.000050 0.000038 0.000171 
-0.000000 0.000034 -0.000000 
-0.000000 0.000059 -0.000000 
-0.000000 0.000063 -0.000000 
-0.000000 0.000059 0.000000 
-0.000000 0.000034 0.000000 
-0.000050 0.000038 -0.000171 
-0.000013 0.000062 -0.000149 
-0.000000 0.000065 -0.000151 
0.000013 0.000062 -0.000149 
0.000050 0.000038 -0.000171 
-0.000099 0.000106 -0.000390 
-0.000025 0.000129 -0.000362 
-0.000000 0.000133 -0.000371 
0.000025 0.000129 -0.000362 
0.000099 0.000106 -0.000390 
0.000149 0.000241 0.000745 
0.000054 0.000282 0.000715 
0.000000 0.000291 0.000720 
-0.000054 0.000282 0.000715 
-0.000149 0.000241 0.000745 
0.000077 0.000156 0.000339 
0.000028 0.000197 0.000314 
0.000000 0.000205 0.000313 
-0.000028 0.000197 0.000314 
-0.000077 0.000156 0.000339 
-0.000000 0.000137 -0.000000 
-0.000000 0.000180 -0.000000 
-0.000000 0.000187 -0.000000 
-0.000000 0.000180 0.000000 
-0.000000 0.000138 0.000000 
-0.000077 0.000156 -0.000339 
-0.000028 0.000197 -0.000314 
-0.000000 0.000205 -0.000313 
0.000028 0.000197 -0.000314 
0.000077 0.000156 -0.000339 
-0.000149 0.000241 -0.000745 
-0.000054 0.000282 -0.000715 
-0.000000 0.000291 -0.000720 
0.000054 0.000282 -0.000715 
0.000149 0.000241 -0.000745 
0.000178 0.000426 0.001081 
0.000075 0.000481 0.001056 
0.000000 0.000495 0.001058 
-0.000075 0.000481 0.001056 
-0.000178 0.000426 0.001082 
0.000093 0.000337 0.000503 
0.000040 0.000390 0.000482 
-0.000000 0.000402 0.000478 
-0.000040 0.000390 0.000482 
-0.000093 0.000337 0.000503 
-0.000000 0.000311 -0.000000 
-0.000000 0.000365 -0.000000 
-0.000000 0.000377 -0.000000 
-0.000000 0.000365 0.000000 
-0.000000 0.000311 0.000000 
-0.000093 0.000337 -0.000503 
-0.000040 0.000390 -0.000482 
-0.000000 0.000402 -0.000478 
0.000040 0.000390 -0.000482 
0.000093 0.000337 -0.000503 
-0.000178 0.000426 -0.001082 
-0.000075 0.000481 -0.001056 
-0.000000 0.000495 -0.001058 
0.000075 0.000481 -0.001056 
0.000178 0.000426 -0.001082 
0.000195 0.000666 0.001406 
0.000088 0.000729 0.001388 
0.000000 0.000747 0.001387 
-0.000088 0.000729 0.001388 
-0.000195 0.000666 0.001406 
0.000102 0.000576 0.000663 
0.000047 0.000638 0.000647 
-0.000000 0.000654 0.000643 
-0.000047 0.000638 0.000647 
-0.000102 0.000576 0.000663 
-0.000000 0.000547 -0.000000 
-0.000000 0.000610 -0.000000 
-0.000000 0.000625 -0.000000 
-0.000000 0.000610 0.000000 
-0.000000 0.000547 0.000000 
-0.000102 0.000576 -0.000663 
-0.000047 0.000638 -0.000647 
-0.000000 0.000654 -0.000643 
0.000047 0.000638 -0.000647 
0.000102 0.000576 -0.000663 
-0.000195 0.000666 -0.001406 
-0.000088 0.000729 -0.001388 
-0.000000 0.000747 -0.001387 
0.000088 0.000729 -0.001388 
0.000195 0.000666 -0.001406 
0.000204 0.000961 0.001721 
0.000096 0.001029 0.001709 
0.000000 0.001050 0.001707 
-0.000096 0.001029 0.001709 
-0.000204 0.000961 0.001721 
0.000106 0.000872 0.000819 
0.000051 0.000940 0.000809 
-0.000000 0.000959 0.000805 
-0.000051 0.000940 0.000809 
-0.000106 0.000872 0.000819 
-0.000000 0.000842 -0.000000 
-0.000000 0.000911 -0.000000 
-0.000000 0.000929 -0.000000 
-0.000000 0.000911 0.000000 
-0.000000 0.000843 0.000000 
-0.000106 0.000872 -0.000819 
-0.000051 0.000940 -0.000809 
-0.000000 0.000959 -0.000805 
0.000051 0.000940 -0.000809 
0.000106 0.000872 -0.000819 
-0.000204 0.000961 -0.001721 
-0.000096 0.001029 -0.001709 
-0.000000 0.001050 -0.001707 
0.000096 0.001029 -0.001709 
0.000204 0.000961 -0.001721 
0.000207 0.001309 0.002027 
0.000100 0.001380 0.002021 
0.000000 0.001403 0.002019 
-0.000100 0.001381 0.002021 
-0.000207 0.001309 0.002027 
0.000108 0.001222 0.000971 
0.000052 0.001293 0.000966 
-0.000000 0.001314 0.000963 
-0.000052 0.001293 0.000966 
-0.000108 0.001222 0.000971 
-0.000000 0.001193 -0.000000 
-0.000000 0.001265 -0.000000 
-0.000000 0.001285 -0.000000 
-0.000000 0.001265 0.000000 
-0.000000 0.001193 0.000000 
-0.000108 0.001222 -0.000971 
-0.000052 0.001293 -0.000966 
-0.000000 0.001314 -0.000963 
0.000052 0.001293 -0.000966 
0.000108 0.001222 -0.000971 
-0.000207 0.001309 -0.002027 
-0.000100 0.001380 -0.002021 
-0.000000 0.001403 -0.002019 
0.000100 0.001381 -0.002021 
0.000207 0.001309 -0.002027 
0.000207 0.001709 0.002326 
0.000102 0.001782 0.002324 
-0.000000 0.001805 0.002323 
-0.000102 0.001782 0.002324 
-0.000207 0.001709 0.002326 
0.000107 0.001625 0.001119 
0.000053 0.001698 0.001118 
-0.000000 0.001720 0.001116 
-0.000053 0.001698 0.001118 
-0.000107 0.001625 0.001120 
-0.000000 0.001597 -0.000000 
-0.000000 0.001670 -0.000000 
-0.000000 0.001692 -0.000000 
-0.000000 0.001670 0.000000 
-0.000000 0.001597 0.000000 
-0.000107 0.001625 -0.001120 
-0.000053 0.001698 -0.001118 
-0.000000 0.001720 -0.001116 
0.000053 0.001698 -0.001118 
0.000107 0.001625 -0.001119 
-0.000207 0.001709 -0.002326 
-0.000102 0.001782 -0.002324 
-0.000000 0.001805 -0.002323 
0.000102 0.001782 -0.002324 
0.000207 0.001709 -0.002326 
0.000205 0.002160 0.002616 
0.000102 0.002233 0.002618 
-0.000000 0.002257 0.002617 
-0.000102 0.002233 0.002618 
-0.000205 0.002160 0.002616 
0.000106 0.002079 0.001264 
0.000052 0.002152 0.001265 
-0.000000 0.002175 0.001264 
-0.000052 0.002152 0.001265 
-0.000106 0.002079 0.001264 
-0.000000 0.002051 -0.000000 
-0.000000 0.002125 -0.000000 
-0.000000 0.002147 -0.000000 
-0.000000 0.002125 0.000000 
-0.000000 0.002051 0.000000 
-0.000106 0.002079 -0.001264 
-0.000052 0.002152 -0.001265 
-0.000000 0.002175 -0.001264 
0.000052 0.002152 -0.001265 
0.000106 0.002079 -0.001264 
-0.000205 0.002160 -0.002616 
-0.000102 0.002233 -0.002618 
-0.000000 0.002257 -0.002617 
0.000101 0.002233 -0.002618 
0.000205 0.002160 -0.002616 
0.000200 0.002660 0.002898 
0.000100 0.002732 0.002902 
-0.000000 0.002756 0.002901 
-0.000100 0.002732 0.002902 
-0.000201 0.002660 0.002898 
0.000103 0.002581 0.001404 
0.000051 0.002654 0.001407 
-0.000000 0.002677 0.001407 
-0.000051 0.002654 0.001407 
-0.000103 0.002581 0.001404 
-0.000000 0.002554 -0.000000 
-0.000000 0.002627 -0.000000 
-0.000000 0.002650 -0.000000 
-0.000000 0.002628 0.000000 
-0.000000 0.002554 0.000000 
-0.000103 0.002581 -0.001404 
-0.000051 0.002654 -0.001407 
-0.000000 0.002677 -0.001407 
0.000051 0.002654 -0.001407 
0.000103 0.002581 -0.001404 
-0.000201 0.002660 -0.002898 
-0.000100 0.002732 -0.002902 
-0.000000 0.002756 -0.002901 
0.000100 0.002732 -0.002902 
0.000200 0.002660 -0.002898 
0.000195 0.003207 0.003171 
0.000098 0.003278 0.003177 
-0.000000 0.003301 0.003177 
-0.000098 0.003278 0.003177 
-0.000195 0.003207 0.003171 
0.000100 0.003130 0.001540 
0.000050 0.003202 0.001545 
-0.000000 0.003225 0.001545 
-0.000050 0.003202 0.001545 
-0.000100 0.003130 0.001540 
-0.000000 0.003104 -0.000000 
-0.000000 0.003177 -0.000000 
-0.000000 0.003199 -0.000000 
-0.000000 0.003177 0.000000 
-0.000000 0.003104 0.000000 
-0.000100 0.003130 -0.001540 
-0.000050 0.003202 -0.001545 
-0.000000 0.003225 -0.001545 
0.000050 0.003202 -0.001545 
0.000100 0.003130 -0.001540 
-0.000195 0.003207 -0.003171 
-0.000098 0.003278 -0.003177 
-0.000000 0.003301 -0.003177 
0.000098 0.003278 -0.003177 
0.000195 0.003207 -0.003171 
0.000190 0.003799 0.003436 
0.000095 0.003868 0.003443 
-0.000000 0.003891 0.003443 
-0.000095 0.003868 0.003443 
-0.000190 0.003799 0.003436 
0.000097 0.003725 0.001672 
0.000048 0.003795 0.001678 
-0.000000 0.003818 0.001678 
-0.000048 0.003795 0.001678 
-0.000097 0.003725 0.001672 
-0.000000 0.003700 -0.000000 
-0.000000 0.003771 -0.000000 
-0.000000 0.003793 -0.000000 
-0.000000 0.003771 0.000000 
-0.000000 0.003700 0.000000 
-0.000097 0.003725 -0.001672 
-0.000048 0.003795 -0.001678 
-0.000000 0.003818 -0.001678 
0.000048 0.003795 -0.001678 
0.000097 0.003725 -0.001672 
-0.000190 0.003799 -0.003436 
-0.000095 0.003868 -0.003443 
-0.000000 0.003891 -0.003443 
0.000095 0.003868 -0.003443 
0.000190 0.003799 -0.003436 
0.000183 0.004435 0.003691 
0.000092 0.004502 0.003699 
-0.000000 0.004525 0.003699 
-0.000092 0.004502 0.003699 
-0.000184 0.004435 0.003691 
0.000094 0.004363 0.001800 
0.000047 0.004431 0.001806 
-0.000000 0.004454 0.001807 
-0.000047 0.004431 0.001806 
-0.000094 0.004363 0.001800 
-0.000000 0.004339 -0.000000 
-0.000000 0.004408 -0.000000 
-0.000000 0.004430 -0.000000 
-0.000000 0.004408 0.000000 
-0.000000 0.004339 0.000000 
-0.000094 0.004363 -0.001800 
-0.000047 0.004431 -0.001806 
-0.000000 0.004454 -0.001807 
0.000047 0.004431 -0.001806 
0.000094 0.004363 -0.001800 
-0.000184 0.004435 -0.003692 
-0.000092 0.004502 -0.003699 
-0.000000 0.004525 -0.003699 
0.000092 0.004502 -0.003699 
0.000183 0.004435 -0.003691 
0.000177 0.005113 0.003938 
0.000089 0.005178 0.003946 
-0.000000 0.005200 0.003947 
-0.000089 0.005178 0.003946 
-0.000177 0.005113 0.003938 
0.000090 0.005044 0.001923 
0.000045 0.005110 0.001930 
-0.000000 0.005132 0.001931 
-0.000045 0.005110 0.001930 
-0.000091 0.005044 0.001923 
-0.000000 0.005020 -0.000000 
-0.000000 0.005087 -0.000000 
-0.000000 0.005109 -0.000000 
-0.000000 0.005087 0.000000 
-0.000000 0.005021 0.000000 
-0.000091 0.005044 -0.001923 
-0.000045 0.005110 -0.001930 
-0.000000 0.005132 -0.001931 
0.000045 0.005110 -0.001930 
0.000090 0.005044 -0.001923 
-0.000177 0.005113 -0.003938 
-0.000089 0.005178 -0.003946 
-0.000000 0.005200 -0.003947 
0.000089 0.005178 -0.003946 
0.000177 0.005113 -0.003938 
0.000170 0.005831 0.004176 
0.000086 0.005894 0.004184 
-0.000000 0.005915 0.004185 
-0.000086 0.005894 0.004184 
-0.000171 0.005831 0.004176 
0.000087 0.005765 0.002042 
0.000043 0.005828 0.002048 
-0.000000 0.005850 0.002050 
-0.000043 0.005829 0.002049 
-0.000087 0.005765 0.002042 
-0.000000 0.005742 -0.000000 
-0.000000 0.005807 -0.000000 
-0.000000 0.005828 -0.000000 
-0.000000 0.005807 0.000000 
-0.000000 0.005742 0.000000 
-0.000087 0.005765 -0.002042 
-0.000043 0.005828 -0.002049 
-0.000000 0.005850 -0.002050 
0.000043 0.005829 -0.002049 
0.000087 0.005765 -0.002042 
-0.000171 0.005831 -0.004176 
-0.000086 0.005894 -0.004184 
-0.000000 0.005915 -0.004185 
0.000086 0.005894 -0.004184 
0.000170 0.005831 -0.004176 
0.000164 0.006588 0.004404 
0.000082 0.006649 0.004413 
-0.000000 0.006670 0.004414 
-0.000082 0.006649 0.004413 
-0.000164 0.006588 0.004404 
0.000084 0.006525 0.002156 
0.000041 0.006586 0.002163 
-0.000000 0.006607 0.002164 
-0.000042 0.006586 0.002163 
-0.000084 0.006525 0.002156 
-0.000000 0.006503 -0.000000 
-0.000000 0.006565 -0.000000 
-0.000000 0.006585 -0.000000 
-0.000000 0.006565 0.000000 
-0.000000 0.006503 0.000000 
-0.000084 0.006525 -0.002156 
-0.000042 0.006586 -0.002163 
-0.000000 0.006607 -0.002165 
0.000041 0.006586 -0.002163 
0.000084 0.006525 -0.002156 
-0.000164 0.006588 -0.004404 
-0.000082 0.006649 -0.004413 
-0.000000 0.006670 -0.004414 
0.000082 0.006649 -0.004413 
0.000164 0.006588 -0.004404 
0.000157 0.007383 0.004624 
0.000079 0.007441 0.004632 
-0.000000 0.007461 0.004633 
-0.000079 0.007442 0.004632 
-0.000157 0.007383 0.004624 
0.000080 0.007322 0.002266 
0.000040 0.007381 0.002273 
-0.000000 0.007401 0.002274 
-0.000040 0.007381 0.002273 
-0.000080 0.007322 0.002266 
-0.000000 0.007301 -0.000000 
-0.000000 0.007361 -0.000000 
-0.000000 0.007381 -0.000000 
-0.000000 0.007361 0.000000 
-0.000000 0.007302 0.000000 
-0.000080 0.007322 -0.002266 
-0.000040 0.007381 -0.002273 
-0.000000 0.007401 -0.002274 
0.000040 0.007381 -0.002273 
0.000080 0.007322 -0.002266 
-0.000157 0.007383 -0.004624 
-0.000079 0.007442 -0.004632 
-0.000000 0.007461 -0.004633 
0.000079 0.007442 -0.004632 
0.000157 0.007383 -0.004624 
0.000150 0.008214 0.004834 
0.000076 0.008270 0.004843 
-0.000000 0.008289 0.004844 
-0.000076 0.008270 0.004843 
-0.000151 0.008214 0.004834 
0.000077 0.008155 0.002371 
0.000038 0.008212 0.002378 
-0.000000 0.008231 0.002380 
-0.000038 0.008212 0.002378 
-0.000077 0.008155 0.002371 
-0.000000 0.008136 -0.000000 
-0.000000 0.008193 -0.000000 
-0.000000 0.008211 -0.000000 
-0.000000 0.008193 0.000000 
-0.000000 0.008136 0.000000 
-0.000077 0.008155 -0.002371 
-0.000038 0.008212 -0.002378 
-0.000000 0.008231 -0.002380 
0.000038 0.008212 -0.002378 
0.000077 0.008155 -0.002371 
-0.000151 0.008214 -0.004834 
-0.000076 0.008270 -0.004843 
-0.000000 0.008289 -0.004844 
0.000075 0.008270 -0.004843 
0.000150 0.008214 -0.004834 
0.000144 0.009079 0.005035 
0.000072 0.009132 0.005044 
-0.000000 0.009150 0.005045 
-0.000072 0.009132 0.005044 
-0.000144 0.009079 0.005035 
0.000073 0.009023 0.002471 
0.000036 0.009077 0.002478 
-0.000000 0.009095 0.002480 
-0.000037 0.009077 0.002479 
-0.000073 0.009023 0.002472 
-0.000000 0.009004 -0.000000 
-0.000000 0.009058 -0.000000 
-0.000000 0.009076 -0.000000 
-0.000000 0.009058 0.000000 
-0.000000 0.009004 0.000000 
-0.000073 0.009023 -0.002472 
-0.000037 0.009077 -0.002479 
-0.000000 0.009095 -0.002480 
0.000036 0.009077 -0.002479 
0.000073 0.009023 -0.002471 
-0.000144 0.009079 -0.005035 
-0.000072 0.009132 -0.005044 
-0.000000 0.009150 -0.005045 
0.000072 0.009132 -0.005044 
0.000144 0.009079 -0.005035 
0.000137 0.009976 0.005227 
0.000069 0.010027 0.005236 
-0.000000 0.010044 0.005237 
-0.000069 0.010027 0.005236 
-0.000137 0.009976 0.005227 
0.000070 0.009923 0.002567 
0.000035 0.009974 0.002575 
-0.000000 0.009992 0.002576 
-0.000035 0.009974 0.002575 
-0.000070 0.009923 0.002568 
-0.000000 0.009905 -0.000000 
-0.000000 0.009957 -0.000000 
-0.000000 0.009974 -0.000000 
-0.000000 0.009957 0.000000 
-0.000000 0.009905 0.000000 
-0.000070 0.009923 -0.002568 
-0.000035 0.009974 -0.002575 
-0.000000 0.009992 -0.002576 
0.000035 0.009974 -0.002575 
0.000070 0.009923 -0.002568 
-0.000137 0.009976 -0.005227 
-0.000069 0.010027 -0.005236 
-0.000000 0.010044 -0.005237 
0.000069 0.010027 -0.005236 
0.000137 0.009976 -0.005227 
0.000130 0.010905 0.005410 
0.000065 0.010953 0.005419 
-0.000000 0.010970 0.005420 
-0.000066 0.010953 0.005419 
-0.000131 0.010905 0.005410 
0.000066 0.010854 0.002659 
0.000033 0.010903 0.002666 
-0.000000 0.010920 0.002668 
-0.000033 0.010903 0.002666 
-0.000067 0.010854 0.002659 
-0.000000 0.010837 -0.000000 
-0.000000 0.010887 -0.000000 
-0.000000 0.010903 -0.000000 
-0.000000 0.010887 0.000000 
-0.000000 0.010837 0.000000 
-0.000067 0.010854 -0.002659 
-0.000033 0.010903 -0.002666 
-0.000000 0.010920 -0.002668 
0.000033 0.010903 -0.002666 
0.000066 0.010854 -0.002659 
-0.000131 0.010905 -0.005410 
-0.000066 0.010953 -0.005419 
-0.000000 0.010970 -0.005420 
0.000065 0.010953 -0.005419 
0.000130 0.010905 -0.005410 
0.000124 0.011863 0.005583 
0.000062 0.011909 0.005592 
-0.000000 0.011925 0.005593 
-0.000062 0.011909 0.005592 
-0.000124 0.011863 0.005584 
0.000063 0.011815 0.002746 
0.000031 0.011862 0.002753 
-0.000000 0.011877 0.002755 
-0.000031 0.011862 0.002753 
-0.000063 0.011815 0.002746 
-0.000000 0.011799 -0.000000 
-0.000000 0.011846 -0.000000 
-0.000000 0.011861 -0.000000 
-0.000000 0.011846 0.000000 
-0.000000 0.011799 0.000000 
-0.000063 0.011815 -0.002746 
-0.000032 0.011862 -0.002753 
-0.000000 0.011877 -0.002755 
0.000031 0.011862 -0.002753 
0.000063 0.011815 -0.002746 
-0.000124 0.011863 -0.005584 
-0.000062 0.011909 -0.005592 
-0.000000 0.011925 -0.005593 
0.000062 0.011909 -0.005592 
0.000124 0.011863 -0.005583 
0.000117 0.012850 0.005748 
0.000059 0.012893 0.005757 
-0.000000 0.012908 0.005758 
-0.000059 0.012893 0.005757 
-0.000117 0.012850 0.005748 
0.000060 0.012804 0.002828 
0.000029 0.012848 0.002835 
-0.000000 0.012863 0.002837 
-0.000030 0.012848 0.002835 
-0.000060 0.012804 0.002828 
-0.000000 0.012789 -0.000000 
-0.000000 0.012833 -0.000000 
-0.000000 0.012848 -0.000000 
-0.000000 0.012833 0.000000 
-0.000000 0.012789 0.000000 
-0.000060 0.012804 -0.002828 
-0.000030 0.012848 -0.002835 
-0.000000 0.012863 -0.002837 
0.000029 0.012848 -0.002835 
0.000059 0.012804 -0.002828 
-0.000117 0.012850 -0.005748 
-0.000059 0.012893 -0.005757 
-0.000000 0.012908 -0.005758 
0.000059 0.012893 -0.005757 
0.000117 0.012850 -0.005748 
0.000110 0.013863 0.005903 
0.000055 0.013904 0.005912 
-0.000000 0.013918 0.005913 
-0.000056 0.013904 0.005912 
-0.000111 0.013863 0.005904 
0.000056 0.013820 0.002906 
0.000028 0.013861 0.002913 
-0.000000 0.013875 0.002915 
-0.000028 0.013862 0.002913 
-0.000056 0.013820 0.002906 
-0.000000 0.013805 -0.000000 
-0.000000 0.013847 -0.000000 
-0.000000 0.013861 -0.000000 
-0.000000 0.013847 0.000000 
-0.000000 0.013806 0.000000 
-0.000057 0.013820 -0.002906 
-0.000028 0.013861 -0.002913 
-0.000000 0.013875 -0.002915 
0.000028 0.013862 -0.002913 
0.000056 0.013820 -0.002906 
-0.000111 0.013863 -0.005904 
-0.000056 0.013904 -0.005912 
-0.000000 0.013918 -0.005913 
0.000055 0.013904 -0.005912 
0.000110 0.013863 -0.005903 
0.000104 0.014901 0.006050 
0.000052 0.014940 0.006059 
-0.000000 0.014953 0.006060 
-0.000052 0.014940 0.006059 
-0.000104 0.014901 0.006050 
0.000053 0.014861 0.002979 
0.000026 0.014900 0.002986 
-0.000000 0.014913 0.002988 
-0.000026 0.014900 0.002986 
-0.000053 0.014861 0.002979 
-0.000000 0.014847 -0.000000 
-0.000000 0.014886 -0.000000 
-0.000000 0.014899 -0.000000 
-0.000000 0.014887 0.000000 
-0.000000 0.014847 0.000000 
-0.000053 0.014861 -0.002979 
-0.000027 0.014900 -0.002986 
-0.000000 0.014913 -0.002988 
0.000026 0.014900 -0.002986 
0.000053 0.014861 -0.002979 
-0.000104 0.014901 -0.006050 
-0.000052 0.014940 -0.006059 
-0.000000 0.014953 -0.006060 
0.000052 0.014940 -0.006059 
0.000104 0.014901 -0.006050 
0.000097 0.015963 0.006187 
0.000049 0.015999 0.006196 
-0.000000 0.016011 0.006197 
-0.000049 0.015999 0.006196 
-0.000097 0.015963 0.006187 
0.000049 0.015925 0.003048 
0.000024 0.015962 0.003055 
-0.000000 0.015974 0.003057 
-0.000025 0.015962 0.003055 
-0.000050 0.015925 0.003048 
-0.000000 0.015912 -0.000000 
-0.000000 0.015949 -0.000000 
-0.000000 0.015961 -0.000000 
-0.000000 0.015949 0.000000 
-0.000000 0.015912 0.000000 
-0.000050 0.015925 -0.003048 
-0.000025 0.015962 -0.003055 
-0.000000 0.015974 -0.003057 
0.000024 0.015962 -0.003055 
0.000049 0.015925 -0.003048 
-0.000097 0.015963 -0.006187 
-0.000049 0.015999 -0.006196 
-0.000000 0.016011 -0.006197 
0.000049 0.015999 -0.006196 
0.000097 0.015963 -0.006187 
0.000090 0.017047 0.006315 
0.000045 0.017080 0.006324 
-0.000000 0.017092 0.006325 
-0.000046 0.017080 0.006324 
-0.000091 0.017047 0.006315 
0.000046 0.017011 0.003112 
0.000023 0.017045 0.003119 
-0.000000 0.017057 0.003121 
-0.000023 0.017045 0.003119 
-0.000046 0.017011 0.003112 
-0.000000 0.016999 -0.000000 
-0.000000 0.017034 -0.000000 
-0.000000 0.017045 -0.000000 
-0.000000 0.017034 0.000000 
-0.000000 0.017000 0.000000 
-0.000046 0.017011 -0.003112 
-0.000023 0.017045 -0.003119 
-0.000000 0.017057 -0.003121 
0.000023 0.017045 -0.003119 
0.000046 0.017011 -0.003112 
-0.000091 0.017047 -0.006316 
-0.000046 0.017080 -0.006324 
-0.000000 0.017092 -0.006325 
0.000045 0.017080 -0.006324 
0.000090 0.017047 -0.006315 
0.000084 0.018151 0.006434 
0.000042 0.018182 0.006443 
-0.000000 0.018193 0.006444 
-0.000042 0.018182 0.006443 
-0.000084 0.018151 0.006435 
0.000043 0.018118 0.003172 
0.000021 0.018150 0.003179 