<?xml version="1.0"?>
<VTKFile type="UnstructuredGrid"  version="0.1"  >
<UnstructuredGrid>
<Piece  NumberOfPoints="1025" NumberOfCells="640">
<Points>
<DataArray  type="Float32"  NumberOfComponents="3"  format="ascii">
0.000000 0.000000 0.000000 
0.750000 0.000000 0.000000 
1.500000 0.000000 0.000000 
2.250000 0.000000 0.000000 
3.000000 0.000000 0.000000 
0.000000 0.750000 0.000000 
0.750000 0.750000 0.000000 
1.500000 0.750000 0.000000 
2.250000 0.750000 0.000000 
3.000000 0.750000 0.000000 
0.000000 1.500000 0.000000 
0.750000 1.500000 0.000000 
1.500000 1.500000 0.000000 
2.250000 1.500000 0.000000 
3.000000 1.500000 0.000000 
0.000000 2.250000 0.000000 
0.750000 2.250000 0.000000 
1.500000 2.250000 0.000000 
2.250000 2.250000 0.000000 
3.000000 2.250000 0.000000 
0.000000 3.000000 0.000000 
0.750000 3.000000 0.000000 
1.500000 3.000000 0.000000 
2.250000 3.000000 0.000000 
3.000000 3.000000 0.000000 
0.000000 0.000000 0.250000 
0.750000 0.000000 0.250000 
1.500000 0.000000 0.250000 
2.250000 0.000000 0.250000 
3.000000 0.000000 0.250000 
0.000000 0.750000 0.250000 
0.750000 0.750000 0.250000 
1.500000 0.750000 0.250000 
2.250000 0.750000 0.250000 
3.000000 0.750000 0.250000 
0.000000 1.500000 0.250000 
0.750000 1.500000 0.250000 
1.500000 1.500000 0.250000 
2.250000 1.500000 0.250000 
3.000000 1.500000 0.250000 
0.000000 2.250000 0.250000 
0.750000 2.250000 0.250000 
1.500000 2.250000 0.250000 
2.250000 2.250000 0.250000 
3.000000 2.250000 0.250000 
0.000000 3.000000 0.250000 
0.750000 3.000000 0.250000 
1.500000 3.000000 0.250000 
2.250000 3.000000 0.250000 
3.000000 3.000000 0.250000 
0.000000 0.000000 0.500000 
0.750000 0.000000 0.500000 
1.500000 0.000000 0.500000 
2.250000 0.000000 0.500000 
3.000000 0.000000 0.500000 
0.000000 0.750000 0.500000 
0.750000 0.750000 0.500000 
1.500000 0.750000 0.500000 
2.250000 0.750000 0.500000 
3.000000 0.750000 0.500000 
0.000000 1.500000 0.500000 
0.750000 1.500000 0.500000 
1.500000 1.500000 0.500000 
2.250000 1.500000 0.500000 
3.000000 1.500000 0.500000 
0.000000 2.250000 0.500000 
0.750000 2.250000 0.500000 
1.500000 2.250000 0.500000 
2.250000 2.250000 0.500000 
3.000000 2.250000 0.500000 
0.000000 3.000000 0.500000 
0.750000 3.000000 0.500000 
1.500000 3.000000 0.500000 
2.250000 3.000000 0.500000 
3.000000 3.000000 0.500000 
0.000000 0.000000 0.750000 
0.750000 0.000000 0.750000 
1.500000 0.000000 0.750000 
2.250000 0.000000 0.750000 
3.000000 0.000000 0.750000 
0.000000 0.750000 0.750000 
0.750000 0.750000 0.750000 
1.500000 0.750000 0.750000 
2.250000 0.750000 0.750000 
3.000000 0.750000 0.750000 
0.000000 1.500000 0.750000 
0.750000 1.500000 0.750000 
1.500000 1.500000 0.750000 
2.250000 1.500000 0.750000 
3.000000 1.500000 0.750000 
0.000000 2.250000 0.750000 
0.750000 2.250000 0.750000 
1.500000 2.250000 0.750000 
2.250000 2.250000 0.750000 
3.000000 2.250000 0.750000 
0.000000 3.000000 0.750000 
0.750000 3.000000 0.750000 
1.500000 3.000000 0.750000 
2.250000 3.000000 0.750000 
3.000000 3.000000 0.750000 
0.000000 0.000000 1.000000 
0.750000 0.000000 1.000000 
1.500000 0.000000 1.000000 
2.250000 0.000000 1.000000 
3.000000 0.000000 1.000000 
0.000000 0.750000 1.000000 
0.750000 0.750000 1.000000 
1.500000 0.750000 1.000000 
2.250000 0.750000 1.000000 
3.000000 0.750000 1.000000 
0.000000 1.500000 1.000000 
0.750000 1.500000 1.000000 
1.500000 1.500000 1.000000 
2.250000 1.500000 1.000000 
3.000000 1.500000 1.000000 
0.000000 2.250000 1.000000 
0.750000 2.250000 1.000000 
1.500000 2.250000 1.000000 
2.250000 2.250000 1.000000 
3.000000 2.250000 1.000000 
0.000000 3.000000 1.000000 
0.750000 3.000000 1.000000 
1.500000 3.000000 1.000000 
2.250000 3.000000 1.000000 
3.000000 3.000000 1.000000 
0.000000 0.000000 1.250000 
0.750000 0.000000 1.250000 
1.500000 0.000000 1.250000 
2.250000 0.000000 1.250000 
3.000000 0.000000 1.250000 
0.000000 0.750000 1.250000 
0.750000 0.750000 1.250000 
1.500000 0.750000 1.250000 
2.250000 0.750000 1.250000 
3.000000 0.750000 1.250000 
0.000000 1.500000 1.250000 
0.750000 1.500000 1.250000 
1.500000 1.500000 1.250000 
2.250000 1.500000 1.250000 
3.000000 1.500000 1.250000 
0.000000 2.250000 1.250000 
0.750000 2.250000 1.250000 
1.500000 2.250000 1.250000 
2.250000 2.250000 1.250000 
3.000000 2.250000 1.250000 
0.000000 3.000000 1.250000 
0.750000 3.000000 1.250000 
1.500000 3.000000 1.250000 
2.250000 3.000000 1.250000 
3.000000 3.000000 1.250000 
0.000000 0.000000 1.500000 
0.750000 0.000000 1.500000 
1.500000 0.000000 1.500000 
2.250000 0.000000 1.500000 
3.000000 0.000000 1.500000 
0.000000 0.750000 1.500000 
0.750000 0.750000 1.500000 
1.500000 0.750000 1.500000 
2.250000 0.750000 1.500000 
3.000000 0.750000 1.500000 
0.000000 1.500000 1.500000 
0.750000 1.500000 1.500000 
1.500000 1.500000 1.500000 
2.250000 1.500000 1.500000 
3.000000 1.500000 1.500000 
0.000000 2.250000 1.500000 
0.750000 2.250000 1.500000 
1.500000 2.250000 1.500000 
2.250000 2.250000 1.500000 
3.000000 2.250000 1.500000 
0.000000 3.000000 1.500000 
0.750000 3.000000 1.500000 
1.500000 3.000000 1.500000 
2.250000 3.000000 1.500000 
3.000000 3.000000 1.500000 
0.000000 0.000000 1.750000 
0.750000 0.000000 1.750000 
1.500000 0.000000 1.750000 
2.250000 0.000000 1.750000 
3.000000 0.000000 1.750000 
0.000000 0.750000 1.750000 
0.750000 0.750000 1.750000 
1.500000 0.750000 1.750000 
2.250000 0.750000 1.750000 
3.000000 0.750000 1.750000 
0.000000 1.500000 1.750000 
0.750000 1.500000 1.750000 
1.500000 1.500000 1.750000 
2.250000 1.500000 1.750000 
3.000000 1.500000 1.750000 
0.000000 2.250000 1.750000 
0.750000 2.250000 1.750000 
1.500000 2.250000 1.750000 
2.250000 2.250000 1.750000 
3.000000 2.250000 1.750000 
0.000000 3.000000 1.750000 
0.750000 3.000000 1.750000 
1.500000 3.000000 1.750000 
2.250000 3.000000 1.750000 
3.000000 3.000000 1.750000 
0.000000 0.000000 2.000000 
0.750000 0.000000 2.000000 
1.500000 0.000000 2.000000 
2.250000 0.000000 2.000000 
3.000000 0.000000 2.000000 
0.000000 0.750000 2.000000 
0.750000 0.750000 2.000000 
1.500000 0.750000 2.000000 
2.250000 0.750000 2.000000 
3.000000 0.750000 2.000000 
0.000000 1.500000 2.000000 
0.750000 1.500000 2.000000 
1.500000 1.500000 2.000000 
2.250000 1.500000 2.000000 
3.000000 1.500000 2.000000 
0.000000 2.250000 2.000000 
0.750000 2.250000 2.000000 
1.500000 2.250000 2.000000 
2.250000 2.250000 2.000000 
3.000000 2.250000 2.000000 
0.000000 3.000000 2.000000 
0.750000 3.000000 2.000000 
1.500000 3.000000 2.000000 
2.250000 3.000000 2.000000 
3.000000 3.000000 2.000000 
0.000000 0.000000 2.250000 
0.750000 0.000000 2.250000 
1.500000 0.000000 2.250000 
2.250000 0.000000 2.250000 
3.000000 0.000000 2.250000 
0.000000 0.750000 2.250000 
0.750000 0.750000 2.250000 
1.500000 0.750000 2.250000 
2.250000 0.750000 2.250000 
3.000000 0.750000 2.250000 
0.000000 1.500000 2.250000 
0.750000 1.500000 2.250000 
1.500000 1.500000 2.250000 
2.250000 1.500000 2.250000 
3.000000 1.500000 2.250000 
0.000000 2.250000 2.250000 
0.750000 2.250000 2.250000 
1.500000 2.250000 2.250000 
2.250000 2.250000 2.250000 
3.000000 2.250000 2.250000 
0.000000 3.000000 2.250000 
0.750000 3.000000 2.250000 
1.500000 3.000000 2.250000 
2.250000 3.000000 2.250000 
3.000000 3.000000 2.250000 
0.000000 0.000000 2.500000 
0.750000 0.000000 2.500000 
1.500000 0.000000 2.500000 
2.250000 0.000000 2.500000 
3.000000 0.000000 2.500000 
0.000000 0.750000 2.500000 
0.750000 0.750000 2.500000 
1.500000 0.750000 2.500000 
2.250000 0.750000 2.500000 
3.000000 0.750000 2.500000 
0.000000 1.500000 2.500000 
0.750000 1.500000 2.500000 
1.500000 1.500000 2.500000 
2.250000 1.500000 2.500000 
3.000000 1.500000 2.500000 
0.000000 2.250000 2.500000 
0.750000 2.250000 2.500000 
1.500000 2.250000 2.500000 
2.250000 2.250000 2.500000 
3.000000 2.250000 2.500000 
0.000000 3.000000 2.500000 
0.750000 3.000000 2.500000 
1.500000 3.000000 2.500000 
2.250000 3.000000 2.500000 
3.000000 3.000000 2.500000 
0.000000 0.000000 2.750000 
0.750000 0.000000 2.750000 
1.500000 0.000000 2.750000 
2.250000 0.000000 2.750000 
3.000000 0.000000 2.750000 
0.000000 0.750000 2.750000 
0.750000 0.750000 2.750000 
1.500000 0.750000 2.750000 
2.250000 0.750000 2.750000 
3.000000 0.750000 2.750000 
0.000000 1.500000 2.750000 
0.750000 1.500000 2.750000 
1.500000 1.500000 2.750000 
2.250000 1.500000 2.750000 
3.000000 1.500000 2.750000 
0.000000 2.250000 2.750000 
0.750000 2.250000 2.750000 
1.500000 2.250000 2.750000 
2.250000 2.250000 2.750000 
3.000000 2.250000 2.750000 
0.000000 3.000000 2.750000 
0.750000 3.000000 2.750000 
1.500000 3.000000 2.750000 
2.250000 3.000000 2.750000 
3.000000 3.000000 2.750000 
0.000000 0.000000 3.000000 
0.750000 0.000000 3.000000 
1.500000 0.000000 3.000000 
2.250000 0.000000 3.000000 
3.000000 0.000000 3.000000 
0.000000 0.750000 3.000000 
0.750000 0.750000 3.000000 
1.500000 0.750000 3.000000 
2.250000 0.750000 3.000000 
3.000000 0.750000 3.000000 
0.000000 1.500000 3.000000 
0.750000 1.500000 3.000000 
1.500000 1.500000 3.000000 
2.250000 1.500000 3.000000 
3.000000 1.500000 3.000000 
0.000000 2.250000 3.000000 
0.750000 2.250000 3.000000 
1.500000 2.250000 3.000000 
2.250000 2.250000 3.000000 
3.000000 2.250000 3.000000 
0.000000 3.000000 3.000000 
0.750000 3.000000 3.000000 
1.500000 3.000000 3.000000 
2.250000 3.000000 3.000000 
3.000000 3.000000 3.000000 
0.000000 0.000000 3.250000 
0.750000 0.000000 3.250000 
1.500000 0.000000 3.250000 
2.250000 0.000000 3.250000 
3.000000 0.000000 3.250000 
0.000000 0.750000 3.250000 
0.750000 0.750000 3.250000 
1.500000 0.750000 3.250000 
2.250000 0.750000 3.250000 
3.000000 0.750000 3.250000 
0.000000 1.500000 3.250000 
0.750000 1.500000 3.250000 
1.500000 1.500000 3.250000 
2.250000 1.500000 3.250000 
3.000000 1.500000 3.250000 
0.000000 2.250000 3.250000 
0.750000 2.250000 3.250000 
1.500000 2.250000 3.250000 
2.250000 2.250000 3.250000 
3.000000 2.250000 3.250000 
0.000000 3.000000 3.250000 
0.750000 3.000000 3.250000 
1.500000 3.000000 3.250000 
2.250000 3.000000 3.250000 
[...]
<PointData  Scalars="u">
<DataArray  type="Float32"  Name="VectorField1"  NumberOfComponents="3" format="ascii">
0.000000 0.000000 0.000000 
0.000000 0.000000 0.000000 
0.000000 0.000000 0.000000 
0.000000 0.000000 0.000000 
0.000000 0.000000 0.000000 
0.000000 0.000000 0.000000 
0.000000 0.000000 0.000000 
0.000000 0.000000 0.000000 
0.000000 0.000000 0.000000 
0.000000 0.000000 0.000000 
0.000000 0.000000 0.000000 
0.000000 0.000000 0.000000 
0.000000 0.000000 0.000000 
0.000000 0.000000 0.000000 
0.000000 0.000000 0.000000 
0.000000 0.000000 0.000000 
0.000000 0.000000 0.000000 
0.000000 0.000000 0.000000 
0.000000 0.000000 0.000000 
0.000000 0.000000 0.000000 
0.000000 0.000000 0.000000 
0.000000 0.000000 0.000000 
0.000000 0.000000 0.000000 
0.000000 0.000000 0.000000 
0.000000 0.000000 0.000000 
0.000110 0.000117 0.000430 
0.000028 0.000142 0.000400 
0.000000 0.000146 0.000409 
-0.000028 0.000142 0.000400 
-0.000110 0.000117 0.000430 
0.000055 0.000042 0.000188 
0.000014 0.000068 0.000165 
-0.000000 0.000071 0.000167 
-0.000014 0.000068 0.000165 
-0.000055 0.000042 0.000188 
-0.000000 0.000037 -0.000000 
-0.000000 0.000065 -0.000000 
-0.000000 0.000069 -0.000000 
-0.000000 0.000065 0.000000 
-0.000000 0.000037 0.000000 
-0.000055 0.000042 -0.000188 
-0.000014 0.000068 -0.000165 
-0.000000 0.000071 -0.000167 
0.000014 0.000068 -0.000165 
0.000055 0.000042 -0.000188 
-0.000110 0.000117 -0.000430 
-0.000028 0.000142 -0.000400 
-0.000000 0.000146 -0.000409 
0.000028 0.000142 -0.000400 
0.000110 0.000117 -0.000430 
0.000165 0.000266 0.000822 
0.000060 0.000311 0.000789 
-0.000000 0.000321 0.000794 
-0.000060 0.000311 0.000789 
-0.000165 0.000266 0.000822 
0.000085 0.000172 0.000374 
0.000031 0.000217 0.000346 
-0.000000 0.000226 0.000345 
-0.000031 0.000217 0.000346 
-0.000085 0.000172 0.000374 
-0.000000 0.000152 -0.000000 
-0.000000 0.000198 -0.000000 
-0.000000 0.000207 -0.000000 
-0.000000 0.000198 0.000000 
-0.000000 0.000152 0.000000 
-0.000085 0.000172 -0.000374 
-0.000031 0.000217 -0.000346 
-0.000000 0.000226 -0.000345 
0.000031 0.000217 -0.000346 
0.000085 0.000172 -0.000374 
-0.000165 0.000266 -0.000822 
-0.000060 0.000311 -0.000789 
-0.000000 0.000321 -0.000794 
0.000060 0.000311 -0.000789 
0.000165 0.000266 -0.000822 
0.000196 0.000470 0.001193 
0.000083 0.000530 0.001165 
-0.000000 0.000546 0.001167 
-0.000083 0.000530 0.001165 
-0.000196 0.000470 0.001193 
0.000103 0.000372 0.000555 
0.000044 0.000430 0.000531 
-0.000000 0.000444 0.000528 
-0.000044 0.000430 0.000531 
-0.000103 0.000372 0.000555 
-0.000000 0.000343 -0.000000 
-0.000000 0.000403 -0.000000 
-0.000000 0.000416 -0.000000 
-0.000000 0.000403 0.000000 
-0.000000 0.000343 0.000000 
-0.000103 0.000372 -0.000555 
-0.000044 0.000430 -0.000531 
-0.000000 0.000444 -0.000528 
0.000044 0.000430 -0.000531 
0.000103 0.000372 -0.000555 
-0.000196 0.000470 -0.001193 
-0.000083 0.000530 -0.001165 
-0.000000 0.000546 -0.001167 
0.000083 0.000530 -0.001165 
0.000196 0.000470 -0.001193 
0.000215 0.000735 0.001551 
0.000098 0.000805 0.001531 
-0.000000 0.000824 0.001530 
-0.000098 0.000805 0.001531 
-0.000215 0.000735 0.001551 
0.000113 0.000636 0.000731 
0.000051 0.000704 0.000714 
-0.000000 0.000722 0.000710 
-0.000051 0.000704 0.000714 
-0.000113 0.000636 0.000732 
-0.000000 0.000604 -0.000000 
-0.000000 0.000673 -0.000000 
-0.000000 0.000690 -0.000000 
-0.000000 0.000673 0.000000 
-0.000000 0.000604 0.000000 
-0.000113 0.000636 -0.000732 
-0.000051 0.000704 -0.000714 
-0.000000 0.000722 -0.000710 
0.000051 0.000704 -0.000714 
0.000113 0.000636 -0.000732 
-0.000215 0.000735 -0.001551 
-0.000098 0.000805 -0.001531 
-0.000000 0.000824 -0.001530 
0.000098 0.000805 -0.001531 
0.000215 0.000735 -0.001551 
0.000225 0.001060 0.001898 
0.000106 0.001136 0.001886 
-0.000000 0.001158 0.001884 
-0.000106 0.001136 0.001886 
-0.000225 0.001060 0.001899 
0.000117 0.000962 0.000904 
0.000056 0.001037 0.000892 
-0.000000 0.001058 0.000888 
-0.000056 0.001037 0.000892 
-0.000117 0.000962 0.000904 
-0.000000 0.000930 -0.000000 
-0.000000 0.001005 -0.000000 
-0.000000 0.001025 -0.000000 
-0.000000 0.001005 0.000000 
-0.000000 0.000930 0.000000 
-0.000117 0.000962 -0.000904 
-0.000056 0.001037 -0.000893 
-0.000000 0.001058 -0.000889 
0.000056 0.001037 -0.000892 
0.000117 0.000962 -0.000904 
-0.000225 0.001060 -0.001899 
-0.000106 0.001136 -0.001886 
-0.000000 0.001158 -0.001884 
0.000106 0.001136 -0.001886 
0.000225 0.001060 -0.001898 
0.000229 0.001444 0.002237 
0.000111 0.001523 0.002230 
-0.000000 0.001548 0.002228 
-0.000111 0.001523 0.002230 
-0.000229 0.001444 0.002237 
0.000119 0.001349 0.001071 
0.000058 0.001427 0.001066 
-0.000000 0.001450 0.001062 
-0.000058 0.001427 0.001066 
-0.000119 0.001349 0.001072 
-0.000000 0.001316 -0.000000 
-0.000000 0.001396 -0.000000 
-0.000000 0.001418 -0.000000 
-0.000000 0.001396 0.000000 
-0.000000 0.001316 0.000000 
-0.000119 0.001349 -0.001072 
-0.000058 0.001427 -0.001066 
-0.000000 0.001450 -0.001062 
0.000058 0.001427 -0.001066 
0.000119 0.001349 -0.001072 
-0.000229 0.001444 -0.002237 
-0.000111 0.001523 -0.002230 
-0.000000 0.001548 -0.002228 
0.000111 0.001523 -0.002230 
0.000229 0.001444 -0.002237 
0.000228 0.001886 0.002566 
0.000112 0.001966 0.002564 
-0.000000 0.001992 0.002563 
-0.000112 0.001966 0.002564 
-0.000229 0.001886 0.002566 
0.000118 0.001793 0.001235 
0.000058 0.001873 0.001233 
-0.000000 0.001898 0.001231 
-0.000058 0.001873 0.001233 
-0.000118 0.001793 0.001235 
-0.000000 0.001762 -0.000000 
-0.000000 0.001843 -0.000000 
-0.000000 0.001866 -0.000000 
-0.000000 0.001843 0.000000 
-0.000000 0.001762 0.000000 
-0.000118 0.001793 -0.001235 
-0.000058 0.001873 -0.001233 
-0.000000 0.001898 -0.001231 
0.000058 0.001873 -0.001233 
0.000118 0.001793 -0.001235 
-0.000229 0.001886 -0.002566 
-0.000112 0.001966 -0.002564 
-0.000000 0.001992 -0.002563 
0.000112 0.001966 -0.002564 
0.000228 0.001886 -0.002566 
0.000226 0.002384 0.002886 
0.000112 0.002464 0.002888 
-0.000000 0.002490 0.002887 
-0.000112 0.002464 0.002888 
-0.000226 0.002384 0.002886 
0.000116 0.002293 0.001394 
0.000058 0.002374 0.001396 
-0.000000 0.002399 0.001394 
-0.000058 0.002374 0.001396 
-0.000117 0.002293 0.001395 
-0.000000 0.002263 -0.000000 
-0.000000 0.002344 -0.000000 
-0.000000 0.002369 -0.000000 
-0.000000 0.002344 0.000000 
-0.000000 0.002263 0.000000 
-0.000117 0.002293 -0.001395 
-0.000058 0.002374 -0.001396 
-0.000000 0.002399 -0.001394 
0.000058 0.002374 -0.001396 
0.000116 0.002293 -0.001394 
-0.000226 0.002384 -0.002886 
-0.000112 0.002464 -0.002888 
-0.000000 0.002490 -0.002887 
0.000112 0.002464 -0.002888 
0.000226 0.002384 -0.002886 
0.000221 0.002935 0.003197 
0.000110 0.003015 0.003202 
-0.000000 0.003041 0.003201 
-0.000110 0.003015 0.003202 
-0.000221 0.002935 0.003197 
0.000114 0.002847 0.001549 
0.000056 0.002928 0.001553 
-0.000000 0.002953 0.001552 
-0.000057 0.002928 0.001553 
-0.000114 0.002847 0.001549 
-0.000000 0.002818 -0.000000 
-0.000000 0.002899 -0.000000 
-0.000000 0.002924 -0.000000 
-0.000000 0.002899 0.000000 
-0.000000 0.002818 0.000000 
-0.000114 0.002847 -0.001549 
-0.000057 0.002928 -0.001553 
-0.000000 0.002953 -0.001552 
0.000056 0.002928 -0.001553 
0.000114 0.002847 -0.001549 
-0.000221 0.002935 -0.003197 
-0.000110 0.003015 -0.003202 
-0.000000 0.003041 -0.003201 
0.000110 0.003015 -0.003202 
0.000221 0.002935 -0.003197 
0.000216 0.003538 0.003499 
0.000108 0.003616 0.003505 
-0.000000 0.003643 0.003505 
-0.000108 0.003616 0.003505 
-0.000216 0.003538 0.003499 
0.000111 0.003453 0.001699 
0.000055 0.003533 0.001704 
-0.000000 0.003558 0.001705 
-0.000055 0.003533 0.001704 
-0.000111 0.003454 0.001700 
-0.000000 0.003425 -0.000000 
-0.000000 0.003505 -0.000000 
-0.000000 0.003530 -0.000000 
-0.000000 0.003505 0.000000 
-0.000000 0.003425 0.000000 
-0.000111 0.003454 -0.001700 
-0.000055 0.003533 -0.001704 
-0.000000 0.003558 -0.001705 
0.000055 0.003533 -0.001704 
0.000111 0.003454 -0.001700 
-0.000216 0.003538 -0.003499 
-0.000108 0.003616 -0.003505 
-0.000000 0.003643 -0.003505 
0.000108 0.003616 -0.003505 
0.000216 0.003538 -0.003499 
0.000209 0.004191 0.003791 
0.000105 0.004268 0.003798 
-0.000000 0.004294 0.003799 
-0.000105 0.004268 0.003798 
-0.000209 0.004191 0.003791 
0.000107 0.004110 0.001845 
0.000053 0.004187 0.001851 
-0.000000 0.004212 0.001852 
-0.000053 0.004187 0.001851 
-0.000107 0.004110 0.001845 
-0.000000 0.004082 -0.000000 
-0.000000 0.004160 -0.000000 
-0.000000 0.004185 -0.000000 
-0.000000 0.004160 0.000000 
-0.000000 0.004082 0.000000 
-0.000107 0.004110 -0.001845 
-0.000053 0.004187 -0.001851 
-0.000000 0.004212 -0.001852 
0.000053 0.004187 -0.001851 
0.000107 0.004110 -0.001845 
-0.000209 0.004191 -0.003791 
-0.000105 0.004268 -0.003799 
-0.000000 0.004294 -0.003799 
0.000105 0.004268 -0.003798 
0.000209 0.004191 -0.003791 
0.000202 0.004893 0.004073 
0.000101 0.004967 0.004081 
-0.000000 0.004992 0.004082 
-0.000102 0.004967 0.004081 
-0.000203 0.004893 0.004073 
0.000103 0.004814 0.001986 
0.000051 0.004889 0.001992 
-0.000000 0.004914 0.001994 
-0.000052 0.004889 0.001993 
-0.000104 0.004814 0.001986 
-0.000000 0.004787 -0.000000 
-0.000000 0.004863 -0.000000 
-0.000000 0.004888 -0.000000 
-0.000000 0.004863 0.000000 
-0.000000 0.004787 0.000000 
-0.000104 0.004814 -0.001986 
-0.000052 0.004889 -0.001993 
-0.000000 0.004914 -0.001994 
0.000051 0.004889 -0.001993 
0.000103 0.004814 -0.001986 
-0.000203 0.004893 -0.004073 
-0.000102 0.004967 -0.004081 
-0.000000 0.004992 -0.004082 
0.000101 0.004967 -0.004081 
0.000202 0.004893 -0.004073 
0.000195 0.005641 0.004345 
0.000098 0.005713 0.004354 
-0.000000 0.005737 0.004355 
-0.000098 0.005713 0.004354 
-0.000195 0.005641 0.004345 
0.000100 0.005565 0.002122 
0.000050 0.005638 0.002129 
-0.000000 0.005662 0.002130 
-0.000050 0.005638 0.002129 
-0.000100 0.005565 0.002122 
-0.000000 0.005539 -0.000000 
-0.000000 0.005613 -0.000000 
-0.000000 0.005637 -0.000000 
-0.000000 0.005613 0.000000 
-0.000000 0.005539 0.000000 
-0.000100 0.005565 -0.002122 
-0.000050 0.005638 -0.002129 
-0.000000 0.005662 -0.002130 
0.000050 0.005638 -0.002129 
0.000100 0.005565 -0.002122 
-0.000196 0.005641 -0.004345 
-0.000098 0.005713 -0.004354 
-0.000000 0.005737 -0.004355 
0.000098 0.005713 -0.004354 
0.000195 0.005641 -0.004345 
0.000188 0.006434 0.004607 
0.000094 0.006503 0.004616 
-0.000000 0.006527 0.004617 
-0.000095 0.006503 0.004617 
-0.000188 0.006434 0.004607 
0.000096 0.006360 0.002253 
0.000048 0.006431 0.002260 
-0.000000 0.006454 0.002262 
-0.000048 0.006431 0.002260 
-0.000096 0.006361 0.002253 
-0.000000 0.006336 -0.000000 
-0.000000 0.006407 -0.000000 
-0.000000 0.006430 -0.000000 
-0.000000 0.006407 0.000000 
-0.000000 0.006336 0.000000 
-0.000096 0.006360 -0.002253 
-0.000048 0.006431 -0.002260 
-0.000000 0.006454 -0.002262 
0.000048 0.006431 -0.002260 
0.000096 0.006361 -0.002253 
-0.000188 0.006434 -0.004607 
-0.000095 0.006503 -0.004617 
-0.000000 0.006527 -0.004617 
0.000094 0.006503 -0.004617 
0.000188 0.006434 -0.004607 
0.000181 0.007269 0.004859 
0.000091 0.007336 0.004869 
-0.000000 0.007359 0.004870 
-0.000091 0.007336 0.004869 
-0.000181 0.007269 0.004859 
0.000092 0.007199 0.002379 
0.000046 0.007267 0.002386 
-0.000000 0.007289 0.002388 
-0.000046 0.007267 0.002386 
-0.000092 0.007199 0.002379 
-0.000000 0.007175 -0.000000 
-0.000000 0.007244 -0.000000 
-0.000000 0.007266 -0.000000 
-0.000000 0.007244 0.000000 
-0.000000 0.007175 0.000000 
-0.000092 0.007199 -0.002379 
-0.000046 0.007267 -0.002387 
-0.000000 0.007289 -0.002388 
0.000046 0.007267 -0.002386 
0.000092 0.007199 -0.002379 
-0.000181 0.007269 -0.004860 
-0.000091 0.007336 -0.004869 
-0.000000 0.007359 -0.004870 
0.000091 0.007336 -0.004869 
0.000181 0.007269 -0.004859 
0.000173 0.008146 0.005101 
0.000087 0.008210 0.005111 
-0.000000 0.008232 0.005112 
-0.000087 0.008210 0.005111 
-0.000174 0.008146 0.005101 
0.000088 0.008079 0.002500 
0.000044 0.008144 0.002507 
-0.000000 0.008165 0.002509 
-0.000044 0.008144 0.002508 
-0.000089 0.008079 0.002500 
-0.000000 0.008056 -0.000000 
-0.000000 0.008122 -0.000000 
-0.000000 0.008143 -0.000000 
-0.000000 0.008122 0.000000 
-0.000000 0.008056 0.000000 
-0.000089 0.008079 -0.002500 
-0.000044 0.008144 -0.002508 
-0.000000 0.008165 -0.002509 
0.000044 0.008144 -0.002508 
0.000088 0.008079 -0.002500 
-0.000174 0.008146 -0.005102 
-0.000087 0.008210 -0.005111 
-0.000000 0.008232 -0.005112 
0.000087 0.008210 -0.005111 
0.000173 0.008146 -0.005101 
0.000166 0.009063 0.005333 
0.000083 0.009124 0.005343 
-0.000000 0.009145 0.005344 
-0.000084 0.009124 0.005343 
-0.000166 0.009063 0.005333 
0.000084 0.008998 0.002616 
0.000042 0.009060 0.002624 
-0.000000 0.009081 0.002625 
-0.000042 0.009060 0.002624 
-0.000085 0.008998 0.002616 
-0.000000 0.008976 -0.000000 
-0.000000 0.009039 -0.000000 
-0.000000 0.009060 -0.000000 
-0.000000 0.009039 0.000000 
-0.000000 0.008976 0.000000 
-0.000085 0.008998 -0.002616 
-0.000042 0.009060 -0.002624 
-0.000000 0.009081 -0.002626 
0.000042 0.009060 -0.002624 
0.000084 0.008998 -0.002616 
-0.000166 0.009063 -0.005334 
-0.000084 0.009124 -0.005343 
-0.000000 0.009145 -0.005344 
0.000083 0.009124 -0.005343 
0.000166 0.009063 -0.005333 
0.000159 0.010017 0.005555 
0.000080 0.010076 0.005565 
-0.000000 0.010096 0.005566 
-0.000080 0.010076 0.005565 
-0.000159 0.010017 0.005555 
0.000081 0.009955 0.002727 
0.000040 0.010015 0.002735 
-0.000000 0.010035 0.002736 
-0.000040 0.010015 0.002735 
-0.000081 0.009955 0.002727 
-0.000000 0.009934 -0.000000 
-0.000000 0.009994 -0.000000 
-0.000000 0.010014 -0.000000 
-0.000000 0.009994 0.000000 
-0.000000 0.009934 0.000000 
-0.000081 0.009955 -0.002727 
-0.000040 0.010015 -0.002735 
-0.000000 0.010035 -0.002737 
0.000040 0.010015 -0.002735 
0.000081 0.009955 -0.002727 
-0.000159 0.010017 -0.005555 
-0.000080 0.010076 -0.005565 
-0.000000 0.010096 -0.005566 
0.000080 0.010076 -0.005565 
0.000159 0.010017 -0.005555 
0.000151 0.011007 0.005767 
0.000076 0.011063 0.005777 
-0.000000 0.011082 0.005778 
-0.000076 0.011063 0.005777 
-0.000152 0.011007 0.005767 
0.000077 0.010948 0.002833 
0.000038 0.011005 0.002840 
-0.000000 0.011024 0.002842 
-0.000039 0.011005 0.002841 
-0.000077 0.010948 0.002833 
-0.000000 0.010928 -0.000000 
-0.000000 0.010986 -0.000000 
-0.000000 0.011005 -0.000000 
-0.000000 0.010986 0.000000 
-0.000000 0.010928 0.000000 
-0.000077 0.010948 -0.002833 
-0.000039 0.011005 -0.002841 
-0.000000 0.011024 -0.002843 
0.000038 0.011005 -0.002841 
0.000077 0.010948 -0.002833 
-0.000152 0.011007 -0.005767 
-0.000076 0.011063 -0.005777 
-0.000000 0.011082 -0.005778 
0.000076 0.011063 -0.005777 
0.000151 0.011007 -0.005767 
0.000144 0.012032 0.005969 
0.000072 0.012085 0.005978 
-0.000000 0.012103 0.005979 
-0.000073 0.012085 0.005979 
-0.000144 0.012032 0.005969 
0.000073 0.011976 0.002934 
0.000036 0.012030 0.002941 
-0.000000 0.012048 0.002943 
-0.000037 0.012030 0.002942 
-0.000074 0.011976 0.002934 
-0.000000 0.011957 -0.000000 
-0.000000 0.012012 -0.000000 
-0.000000 0.012029 -0.000000 
-0.000000 0.012012 0.000000 
-0.000000 0.011957 0.000000 
-0.000074 0.011976 -0.002934 
-0.000037 0.012030 -0.002942 
-0.000000 0.012048 -0.002944 
0.000036 0.012030 -0.002942 
0.000073 0.011976 -0.002934 
-0.000144 0.012032 -0.005969 
-0.000073 0.012085 -0.005979 
-0.000000 0.012103 -0.005980 
0.000072 0.012085 -0.005979 
0.000144 0.012032 -0.005969 
0.000136 0.013089 0.006160 
0.000068 0.013140 0.006170 
-0.000000 0.013157 0.006171 
-0.000069 0.013140 0.006170 
-0.000137 0.013089 0.006160 
0.000069 0.013036 0.003029 
0.000034 0.013087 0.003037 
-0.000000 0.013105 0.003039 
-0.000035 0.013087 0.003037 
-0.000070 0.013036 0.003030 
-0.000000 0.013018 -0.000000 
-0.000000 0.013070 -0.000000 
-0.000000 0.013087 -0.000000 
-0.000000 0.013070 0.000000 
-0.000000 0.013018 0.000000 
-0.000070 0.013036 -0.003030 
-0.000035 0.013087 -0.003038 
-0.000000 0.013105 -0.003039 
0.000034 0.013087 -0.003037 
0.000069 0.013036 -0.003030 
-0.000137 0.013089 -0.006161 
-0.000069 0.013140 -0.006170 
-0.000000 0.013157 -0.006171 
0.000068 0.013140 -0.006170 
0.000136 0.013089 -0.006160 
0.000129 0.014178 0.006342 
0.000065 0.014226 0.006352 
-0.000000 0.014242 0.006353 
-0.000065 0.014226 0.006352 
-0.000130 0.014178 0.006342 
0.000066 0.014127 0.003120 
0.000032 0.014176 0.003128 
-0.000000 0.014192 0.003130 
-0.000033 0.014176 0.003128 
-0.000066 0.014127 0.003121 
-0.000000 0.014110 -0.000000 
-0.000000 0.014159 -0.000000 
-0.000000 0.014176 -0.000000 
-0.000000 0.014159 -0.000000 
-0.000000 0.014110 0.000000 
-0.000066 0.014127 -0.003121 
-0.000033 0.014176 -0.003128 
-0.000000 0.014192 -0.003130 
0.000032 0.014176 -0.003128 
0.000066 0.014127 -0.003120 
-0.000130 0.014178 -0.006342 
-0.000065 0.014226 -0.006352 
-0.000000 0.014242 -0.006353 
0.000065 0.014226 -0.006352 
0.000129 0.014178 -0.006342 
0.000122 0.015295 0.006513 
0.000061 0.015341 0.006523 
-0.000000 0.015356 0.006524 
-0.000062 0.015341 0.006523 
-0.000122 0.015295 0.006514 
0.000062 0.015248 0.003206 
0.000030 0.015294 0.003214 
-0.000000 0.015309 0.003216 
-0.000031 0.015294 0.003214 
-0.000062 0.015248 0.003206 
-0.000000 0.015232 -0.000000 
-0.000000 0.015278 -0.000000 
-0.000000 0.015293 -0.000000 
-0.000000 0.015278 -0.000000 
-0.000000 0.015232 0.000000 
-0.000062 0.015248 -0.003207 
-0.000031 0.015294 -0.003214 
-0.000000 0.015309 -0.003216 
0.000030 0.015294 -0.003214 
0.000062 0.015248 -0.003206 
-0.000122 0.015295 -0.006514 
-0.000062 0.015341 -0.006523 
-0.000000 0.015356 -0.006524 
0.000061 0.015341 -0.006523 
0.000122 0.015295 -0.006513 
0.000114 0.016441 0.006675 
0.000057 0.016483 0.006685 
-0.000000 0.016498 0.006686 
-0.000058 0.016483 0.006685 
-0.000115 0.016441 0.006675 
0.000058 0.016396 0.003287 
0.000029 0.016439 0.003295 
-0.000000 0.016454 0.003297 
-0.000029 0.016439 0.003295 
-0.000059 0.016396 0.003287 
-0.000000 0.016381 -0.000000 
-0.000000 0.016425 -0.000000 
-0.000000 0.016439 -0.000000 
-0.000000 0.016425 -0.000000 
-0.000000 0.016381 0.000000 
-0.000059 0.016396 -0.003287 
-0.000029 0.016439 -0.003295 
-0.000000 0.016454 -0.003297 
0.000029 0.016439 -0.003295 
0.000058 0.016396 -0.003287 
-0.000115 0.016441 -0.006675 
-0.000058 0.016483 -0.006685 
-0.000000 0.016498 -0.006686 
0.000057 0.016483 -0.006685 
0.000114 0.016441 -0.006675 
0.000107 0.017612 0.006826 
0.000053 0.017652 0.006836 
-0.000000 0.017666 0.006837 
-0.000054 0.017652 0.006836 
-0.000108 0.017612 0.006827 
0.000054 0.017571 0.003363 
0.000027 0.017611 0.003371 
-0.000000 0.017624 0.003373 
-0.000028 0.017611 0.003371 
-0.000055 0.017571 0.003363 
-0.000000 0.017556 -0.000000 
-0.000000 0.017597 -0.000000 
-0.000000 0.017611 -0.000000 
-0.000000 0.017597 -0.000000 
-0.000000 0.017556 0.000000 
-0.000055 0.017571 -0.003363 
-0.000028 0.017611 -0.003371 
-0.000000 0.017624 -0.003373 
0.000027 0.017611 -0.003371 
0.000054 0.017571 -0.003363 
-0.000108 0.017612 -0.006827 
-0.000054 0.017652 -0.006836 
-0.000000 0.017666 -0.006837 
0.000053 0.017652 -0.006836 
0.000107 0.017612 -0.006826 
0.000099 0.018808 0.006968 
0.000050 0.018845 0.006977 
-0.000000 0.018858 0.006978 
-0.000051 0.018845 0.006978 
-0.000100 0.018808 0.006968 
0.000050 0.018769 0.003434 
0.000025 0.018807 0.003441 
-0.000000 0.018819 0.003443 
-0.000026 0.018807 0.003442 
-0.000051 0.018769 0.003434 
-0.000000 0.018756 -0.000000 
-0.000000 0.018794 -0.000000 
-0.000000 0.018806 -0.000000 
-0.000000 0.018794 -0.000000 
-0.000000 0.018756 0.000000 
-0.000051 0.018769 -0.003434 
-0.000026 0.018807 -0.003442 
-0.000000 0.018819 -0.003444 
0.000025 0.018807 -0.003442 
0.000050 0.018769 -0.003434 
-0.000100 0.018808 -0.006968 
-0.000051 0.018845 -0.006978 
-0.000000 0.018858 -0.006979 
0.000050 0.018845 -0.006978 
0.000099 0.018808 -0.006968 
0.000092 0.020026 0.007099 
0.000046 0.020061 0.007109 
-0.000000 0.020073 0.007110 
-0.000047 0.020061 0.007109 
-0.000093 0.020026 0.007099 
0.000047 0.019990 0.003500 
0.000023 0.020025 0.003507 