<?xml version="1.0"?>
<VTKFile type="UnstructuredGrid"  version="0.1"  >
<UnstructuredGrid>
<Piece  NumberOfPoints="1025" NumberOfCells="640">
<Points>
<DataArray  type="Float32"  NumberOfComponents="3"  format="ascii">
0.000000 0.000000 0.000000 
0.750000 0.000000 0.000000 
1.500000 0.000000 0.000000 
2.250000 0.000000 0.000000 
3.000000 0.000000 0.000000 
0.000000 0.750000 0.000000 
0.750000 0.750000 0.000000 
1.500000 0.750000 0.000000 
2.250000 0.750000 0.000000 
3.000000 0.750000 0.000000 
0.000000 1.500000 0.000000 
0.750000 1.500000 0.000000 
1.500000 1.500000 0.000000 
2.250000 1.500000 0.000000 
3.000000 1.500000 0.000000 
0.000000 2.250000 0.000000 
0.750000 2.250000 0.000000 
1.500000 2.250000 0.000000 
2.250000 2.250000 0.000000 
3.000000 2.250000 0.000000 
0.000000 3.000000 0.000000 
0.750000 3.000000 0.000000 
1.500000 3.000000 0.000000 
2.250000 3.000000 0.000000 
3.000000 3.000000 0.000000 
0.000000 0.000000 0.250000 
0.750000 0.000000 0.250000 
1.500000 0.000000 0.250000 
2.250000 0.000000 0.250000 
3.000000 0.000000 0.250000 
0.000000 0.750000 0.250000 
0.750000 0.750000 0.250000 
1.500000 0.750000 0.250000 
2.250000 0.750000 0.250000 
3.000000 0.750000 0.250000 
0.000000 1.500000 0.250000 
0.750000 1.500000 0.250000 
1.500000 1.500000 0.250000 
2.250000 1.500000 0.250000 
3.000000 1.500000 0.250000 
0.000000 2.250000 0.250000 
0.750000 2.250000 0.250000 
1.500000 2.250000 0.250000 
2.250000 2.250000 0.250000 
3.000000 2.250000 0.250000 
0.000000 3.000000 0.250000 
0.750000 3.000000 0.250000 
1.500000 3.000000 0.250000 
2.250000 3.000000 0.250000 
3.000000 3.000000 0.250000 
0.000000 0.000000 0.500000 
0.750000 0.000000 0.500000 
1.500000 0.000000 0.500000 
2.250000 0.000000 0.500000 
3.000000 0.000000 0.500000 
0.000000 0.750000 0.500000 
0.750000 0.750000 0.500000 
1.500000 0.750000 0.500000 
2.250000 0.750000 0.500000 
3.000000 0.750000 0.500000 
0.000000 1.500000 0.500000 
0.750000 1.500000 0.500000 
1.500000 1.500000 0.500000 
2.250000 1.500000 0.500000 
3.000000 1.500000 0.500000 
0.000000 2.250000 0.500000 
0.750000 2.250000 0.500000 
1.500000 2.250000 0.500000 
2.250000 2.250000 0.500000 
3.000000 2.250000 0.500000 
0.000000 3.000000 0.500000 
0.750000 3.000000 0.500000 
1.500000 3.000000 0.500000 
2.250000 3.000000 0.500000 
3.000000 3.000000 0.500000 
0.000000 0.000000 0.750000 
0.750000 0.000000 0.750000 
1.500000 0.000000 0.750000 
2.250000 0.000000 0.750000 
3.000000 0.000000 0.750000 
0.000000 0.750000 0.750000 
0.750000 0.750000 0.750000 
1.500000 0.750000 0.750000 
2.250000 0.750000 0.750000 
3.000000 0.750000 0.750000 
0.000000 1.500000 0.750000 
0.750000 1.500000 0.750000 
1.500000 1.500000 0.750000 
2.250000 1.500000 0.750000 
3.000000 1.500000 0.750000 
0.000000 2.250000 0.750000 
0.750000 2.250000 0.750000 
1.500000 2.250000 0.750000 
2.250000 2.250000 0.750000 
3.000000 2.250000 0.750000 
0.000000 3.000000 0.750000 
0.750000 3.000000 0.750000 
1.500000 3.000000 0.750000 
2.250000 3.000000 0.750000 
3.000000 3.000000 0.750000 
0.000000 0.000000 1.000000 
0.750000 0.000000 1.000000 
1.500000 0.000000 1.000000 
2.250000 0.000000 1.000000 
3.000000 0.000000 1.000000 
0.000000 0.750000 1.000000 
0.750000 0.750000 1.000000 
1.500000 0.750000 1.000000 
2.250000 0.750000 1.000000 
3.000000 0.750000 1.000000 
0.000000 1.500000 1.000000 
0.750000 1.500000 1.000000 
1.500000 1.500000 1.000000 
2.250000 1.500000 1.000000 
3.000000 1.500000 1.000000 
0.000000 2.250000 1.000000 
0.750000 2.250000 1.000000 
1.500000 2.250000 1.000000 
2.250000 2.250000 1.000000 
3.000000 2.250000 1.000000 
0.000000 3.000000 1.000000 
0.750000 3.000000 1.000000 
1.500000 3.000000 1.000000 
2.250000 3.000000 1.000000 
3.000000 3.000000 1.000000 
0.000000 0.000000 1.250000 
0.750000 0.000000 1.250000 
1.500000 0.000000 1.250000 
2.250000 0.000000 1.250000 
3.000000 0.000000 1.250000 
0.000000 0.750000 1.250000 
0.750000 0.750000 1.250000 
1.500000 0.750000 1.250000 
2.250000 0.750000 1.250000 
3.000000 0.750000 1.250000 
0.000000 1.500000 1.250000 
0.750000 1.500000 1.250000 
1.500000 1.500000 1.250000 
2.250000 1.500000 1.250000 
3.000000 1.500000 1.250000 
0.000000 2.250000 1.250000 
0.750000 2.250000 1.250000 
1.500000 2.250000 1.250000 
2.250000 2.250000 1.250000 
3.000000 2.250000 1.250000 
0.000000 3.000000 1.250000 
0.750000 3.000000 1.250000 
1.500000 3.000000 1.250000 
2.250000 3.000000 1.250000 
3.000000 3.000000 1.250000 
0.000000 0.000000 1.500000 
0.750000 0.000000 1.500000 
1.500000 0.000000 1.500000 
2.250000 0.000000 1.500000 
3.000000 0.000000 1.500000 
0.000000 0.750000 1.500000 
0.750000 0.750000 1.500000 
1.500000 0.750000 1.500000 
2.250000 0.750000 1.500000 
3.000000 0.750000 1.500000 
0.000000 1.500000 1.500000 
0.750000 1.500000 1.500000 
1.500000 1.500000 1.500000 
2.250000 1.500000 1.500000 
3.000000 1.500000 1.500000 
0.000000 2.250000 1.500000 
0.750000 2.250000 1.500000 
1.500000 2.250000 1.500000 
2.250000 2.250000 1.500000 
3.000000 2.250000 1.500000 
0.000000 3.000000 1.500000 
0.750000 3.000000 1.500000 
1.500000 3.000000 1.500000 
2.250000 3.000000 1.500000 
3.000000 3.000000 1.500000 
0.000000 0.000000 1.750000 
0.750000 0.000000 1.750000 
1.500000 0.000000 1.750000 
2.250000 0.000000 1.750000 
3.000000 0.000000 1.750000 
0.000000 0.750000 1.750000 
0.750000 0.750000 1.750000 
1.500000 0.750000 1.750000 
2.250000 0.750000 1.750000 
3.000000 0.750000 1.750000 
0.000000 1.500000 1.750000 
0.750000 1.500000 1.750000 
1.500000 1.500000 1.750000 
2.250000 1.500000 1.750000 
3.000000 1.500000 1.750000 
0.000000 2.250000 1.750000 
0.750000 2.250000 1.750000 
1.500000 2.250000 1.750000 
2.250000 2.250000 1.750000 
3.000000 2.250000 1.750000 
0.000000 3.000000 1.750000 
0.750000 3.000000 1.750000 
1.500000 3.000000 1.750000 
2.250000 3.000000 1.750000 
3.000000 3.000000 1.750000 
0.000000 0.000000 2.000000 
0.750000 0.000000 2.000000 
1.500000 0.000000 2.000000 
2.250000 0.000000 2.000000 
3.000000 0.000000 2.000000 
0.000000 0.750000 2.000000 
0.750000 0.750000 2.000000 
1.500000 0.750000 2.000000 
2.250000 0.750000 2.000000 
3.000000 0.750000 2.000000 
0.000000 1.500000 2.000000 
0.750000 1.500000 2.000000 
1.500000 1.500000 2.000000 
2.250000 1.500000 2.000000 
3.000000 1.500000 2.000000 
0.000000 2.250000 2.000000 
0.750000 2.250000 2.000000 
1.500000 2.250000 2.000000 
2.250000 2.250000 2.000000 
3.000000 2.250000 2.000000 
0.000000 3.000000 2.000000 
0.750000 3.000000 2.000000 
1.500000 3.000000 2.000000 
2.250000 3.000000 2.000000 
3.000000 3.000000 2.000000 
0.000000 0.000000 2.250000 
0.750000 0.000000 2.250000 
1.500000 0.000000 2.250000 
2.250000 0.000000 2.250000 
3.000000 0.000000 2.250000 
0.000000 0.750000 2.250000 
0.750000 0.750000 2.250000 
1.500000 0.750000 2.250000 
2.250000 0.750000 2.250000 
3.000000 0.750000 2.250000 
0.000000 1.500000 2.250000 
0.750000 1.500000 2.250000 
1.500000 1.500000 2.250000 
2.250000 1.500000 2.250000 
3.000000 1.500000 2.250000 
0.000000 2.250000 2.250000 
0.750000 2.250000 2.250000 
1.500000 2.250000 2.250000 
2.250000 2.250000 2.250000 
3.000000 2.250000 2.250000 
0.000000 3.000000 2.250000 
0.750000 3.000000 2.250000 
1.500000 3.000000 2.250000 
2.250000 3.000000 2.250000 
3.000000 3.000000 2.250000 
0.000000 0.000000 2.500000 
0.750000 0.000000 2.500000 
1.500000 0.000000 2.500000 
2.250000 0.000000 2.500000 
3.000000 0.000000 2.500000 
0.000000 0.750000 2.500000 
0.750000 0.750000 2.500000 
1.500000 0.750000 2.500000 
2.250000 0.750000 2.500000 
3.000000 0.750000 2.500000 
0.000000 1.500000 2.500000 
0.750000 1.500000 2.500000 
1.500000 1.500000 2.500000 
2.250000 1.500000 2.500000 
3.000000 1.500000 2.500000 
0.000000 2.250000 2.500000 
0.750000 2.250000 2.500000 
1.500000 2.250000 2.500000 
2.250000 2.250000 2.500000 
3.000000 2.250000 2.500000 
0.000000 3.000000 2.500000 
0.750000 3.000000 2.500000 
1.500000 3.000000 2.500000 
2.250000 3.000000 2.500000 
3.000000 3.000000 2.500000 
0.000000 0.000000 2.750000 
0.750000 0.000000 2.750000 
1.500000 0.000000 2.750000 
2.250000 0.000000 2.750000 
3.000000 0.000000 2.750000 
0.000000 0.750000 2.750000 
0.750000 0.750000 2.750000 
1.500000 0.750000 2.750000 
2.250000 0.750000 2.750000 
3.000000 0.750000 2.750000 
0.000000 1.500000 2.750000 
0.750000 1.500000 2.750000 
1.500000 1.500000 2.750000 
2.250000 1.500000 2.750000 
3.000000 1.500000 2.750000 
0.000000 2.250000 2.750000 
0.750000 2.250000 2.750000 
1.500000 2.250000 2.750000 
2.250000 2.250000 2.750000 
3.000000 2.250000 2.750000 
0.000000 3.000000 2.750000 
0.750000 3.000000 2.750000 
1.500000 3.000000 2.750000 
2.250000 3.000000 2.750000 
3.000000 3.000000 2.750000 
0.000000 0.000000 3.000000 
0.750000 0.000000 3.000000 
1.500000 0.000000 3.000000 
2.250000 0.000000 3.000000 
3.000000 0.000000 3.000000 
0.000000 0.750000 3.000000 
0.750000 0.750000 3.000000 
1.500000 0.750000 3.000000 
2.250000 0.750000 3.000000 
3.000000 0.750000 3.000000 
0.000000 1.500000 3.000000 
0.750000 1.500000 3.000000 
1.500000 1.500000 3.000000 
2.250000 1.500000 3.000000 
3.000000 1.500000 3.000000 
0.000000 2.250000 3.000000 
0.750000 2.250000 3.000000 
1.500000 2.250000 3.000000 
2.250000 2.250000 3.000000 
3.000000 2.250000 3.000000 
0.000000 3.000000 3.000000 
0.750000 3.000000 3.000000 
1.500000 3.000000 3.000000 
2.250000 3.000000 3.000000 
3.000000 3.000000 3.000000 
0.000000 0.000000 3.250000 
0.750000 0.000000 3.250000 
1.500000 0.000000 3.250000 
2.250000 0.000000 3.250000 
3.000000 0.000000 3.250000 
0.000000 0.750000 3.250000 
0.750000 0.750000 3.250000 
1.500000 0.750000 3.250000 
2.250000 0.750000 3.250000 
3.000000 0.750000 3.250000 
0.000000 1.500000 3.250000 
0.750000 1.500000 3.250000 
1.500000 1.500000 3.250000 
2.250000 1.500000 3.250000 
3.000000 1.500000 3.250000 
0.000000 2.250000 3.250000 
0.750000 2.250000 3.250000 
1.500000 2.250000 3.250000 
2.250000 2.250000 3.250000 
3.000000 2.250000 3.250000 
0.000000 3.000000 3.250000 
0.750000 3.000000 3.250000 
1.500000 3.000000 3.250000 
2.250000 3.000000 3.250000 
[...]
<PointData  Scalars="u">
<DataArray  type="Float32"  Name="VectorField1"  NumberOfComponents="3" format="ascii">
0.000000 0.000000 0.000000 
0.000000 0.000000 0.000000 
0.000000 0.000000 0.000000 
0.000000 0.000000 0.000000 
0.000000 0.000000 0.000000 
0.000000 0.000000 0.000000 
0.000000 0.000000 0.000000 
0.000000 0.000000 0.000000 
0.000000 0.000000 0.000000 
0.000000 0.000000 0.000000 
0.000000 0.000000 0.000000 
0.000000 0.000000 0.000000 
0.000000 0.000000 0.000000 
0.000000 0.000000 0.000000 
0.000000 0.000000 0.000000 
0.000000 0.000000 0.000000 
0.000000 0.000000 0.000000 
0.000000 0.000000 0.000000 
0.000000 0.000000 0.000000 
0.000000 0.000000 0.000000 
0.000000 0.000000 0.000000 
0.000000 0.000000 0.000000 
0.000000 0.000000 0.000000 
0.000000 0.000000 0.000000 
0.000000 0.000000 0.000000 
0.000145 0.000155 0.000567 
0.000037 0.000187 0.000527 
0.000000 0.000193 0.000540 
-0.000037 0.000187 0.000527 
-0.000145 0.000155 0.000567 
0.000072 0.000055 0.000248 
0.000019 0.000090 0.000217 
0.000000 0.000094 0.000220 
-0.000019 0.000090 0.000217 
-0.000072 0.000055 0.000248 
0.000000 0.000049 0.000000 
0.000000 0.000086 0.000000 
0.000000 0.000091 -0.000000 
0.000000 0.000086 -0.000000 
0.000000 0.000049 -0.000000 
-0.000072 0.000055 -0.000248 
-0.000019 0.000090 -0.000217 
0.000000 0.000094 -0.000220 
0.000019 0.000090 -0.000217 
0.000072 0.000055 -0.000248 
-0.000145 0.000155 -0.000567 
-0.000037 0.000187 -0.000527 
0.000000 0.000193 -0.000540 
0.000037 0.000187 -0.000527 
0.000145 0.000155 -0.000567 
0.000217 0.000350 0.001084 
0.000078 0.000411 0.001040 
0.000000 0.000424 0.001048 
-0.000078 0.000411 0.001040 
-0.000217 0.000350 0.001084 
0.000113 0.000227 0.000493 
0.000041 0.000286 0.000457 
0.000000 0.000298 0.000455 
-0.000041 0.000286 0.000457 
-0.000113 0.000227 0.000493 
0.000000 0.000200 0.000000 
0.000000 0.000261 0.000000 
0.000000 0.000273 -0.000000 
0.000000 0.000261 -0.000000 
0.000000 0.000200 -0.000000 
-0.000113 0.000227 -0.000493 
-0.000041 0.000286 -0.000457 
0.000000 0.000298 -0.000455 
0.000041 0.000286 -0.000457 
0.000113 0.000227 -0.000493 
-0.000217 0.000350 -0.001084 
-0.000078 0.000411 -0.001040 
0.000000 0.000424 -0.001048 
0.000078 0.000411 -0.001040 
0.000217 0.000350 -0.001084 
0.000259 0.000620 0.001574 
0.000109 0.000700 0.001537 
0.000000 0.000720 0.001539 
-0.000109 0.000700 0.001537 
-0.000259 0.000620 0.001574 
0.000136 0.000490 0.000732 
0.000058 0.000568 0.000701 
0.000000 0.000585 0.000696 
-0.000058 0.000568 0.000701 
-0.000136 0.000490 0.000732 
0.000000 0.000452 0.000000 
0.000000 0.000531 0.000000 
0.000000 0.000548 -0.000000 
0.000000 0.000531 -0.000000 
0.000000 0.000452 -0.000000 
-0.000136 0.000490 -0.000732 
-0.000058 0.000568 -0.000701 
0.000000 0.000585 -0.000696 
0.000058 0.000568 -0.000701 
0.000136 0.000490 -0.000732 
-0.000259 0.000620 -0.001574 
-0.000109 0.000700 -0.001537 
0.000000 0.000720 -0.001539 
0.000109 0.000700 -0.001537 
0.000259 0.000620 -0.001574 
0.000283 0.000970 0.002045 
0.000129 0.001061 0.002019 
0.000000 0.001087 0.002018 
-0.000129 0.001061 0.002019 
-0.000283 0.000970 0.002045 
0.000149 0.000839 0.000965 
0.000068 0.000929 0.000942 
0.000000 0.000952 0.000936 
-0.000068 0.000929 0.000942 
-0.000149 0.000839 0.000965 
0.000000 0.000797 0.000000 
0.000000 0.000888 0.000000 
0.000000 0.000910 -0.000000 
0.000000 0.000888 -0.000000 
0.000000 0.000797 -0.000000 
-0.000149 0.000839 -0.000965 
-0.000068 0.000929 -0.000942 
0.000000 0.000952 -0.000936 
0.000068 0.000929 -0.000942 
0.000149 0.000839 -0.000965 
-0.000283 0.000970 -0.002045 
-0.000129 0.001061 -0.002019 
0.000000 0.001087 -0.002018 
0.000129 0.001061 -0.002019 
0.000283 0.000970 -0.002045 
0.000296 0.001398 0.002504 
0.000140 0.001498 0.002487 
0.000000 0.001527 0.002484 
-0.000140 0.001498 0.002487 
-0.000296 0.001398 0.002504 
0.000155 0.001269 0.001192 
0.000074 0.001368 0.001177 
0.000000 0.001395 0.001172 
-0.000074 0.001368 0.001177 
-0.000155 0.001269 0.001192 
0.000000 0.001226 0.000000 
0.000000 0.001326 0.000000 
0.000000 0.001352 -0.000000 
0.000000 0.001326 -0.000000 
0.000000 0.001226 -0.000000 
-0.000155 0.001269 -0.001192 
-0.000074 0.001368 -0.001177 
0.000000 0.001395 -0.001172 
0.000074 0.001368 -0.001177 
0.000155 0.001269 -0.001192 
-0.000296 0.001398 -0.002504 
-0.000140 0.001498 -0.002487 
0.000000 0.001527 -0.002484 
0.000140 0.001498 -0.002487 
0.000296 0.001398 -0.002504 
0.000301 0.001905 0.002950 
0.000146 0.002009 0.002941 
0.000000 0.002041 0.002938 
-0.000146 0.002009 0.002941 
-0.000301 0.001905 0.002950 
0.000157 0.001779 0.001413 
0.000076 0.001882 0.001405 
0.000000 0.001913 0.001401 
-0.000076 0.001882 0.001405 
-0.000157 0.001779 0.001413 
0.000000 0.001736 0.000000 
0.000000 0.001841 0.000000 
0.000000 0.001870 -0.000000 
0.000000 0.001841 -0.000000 
0.000000 0.001736 -0.000000 
-0.000157 0.001779 -0.001413 
-0.000076 0.001882 -0.001405 
0.000000 0.001913 -0.001401 
0.000076 0.001882 -0.001405 
0.000157 0.001779 -0.001413 
-0.000301 0.001905 -0.002950 
-0.000146 0.002009 -0.002941 
0.000000 0.002041 -0.002938 
0.000146 0.002009 -0.002941 
0.000301 0.001905 -0.002950 
0.000301 0.002487 0.003384 
0.000148 0.002593 0.003382 
0.000000 0.002627 0.003379 
-0.000148 0.002593 0.003382 
-0.000301 0.002487 0.003384 
0.000156 0.002365 0.001629 
0.000077 0.002471 0.001626 
0.000000 0.002503 0.001624 
-0.000077 0.002471 0.001626 
-0.000156 0.002365 0.001629 
0.000000 0.002323 0.000000 
0.000000 0.002430 0.000000 
0.000000 0.002461 -0.000000 
0.000000 0.002430 -0.000000 
0.000000 0.002323 -0.000000 
-0.000156 0.002365 -0.001629 
-0.000077 0.002471 -0.001626 
0.000000 0.002503 -0.001624 
0.000077 0.002471 -0.001626 
0.000156 0.002365 -0.001629 
-0.000301 0.002487 -0.003384 
-0.000148 0.002593 -0.003382 
0.000000 0.002627 -0.003379 
0.000148 0.002593 -0.003382 
0.000301 0.002487 -0.003384 
0.000298 0.003143 0.003806 
0.000148 0.003250 0.003809 
0.000000 0.003284 0.003807 
-0.000148 0.003250 0.003809 
-0.000298 0.003143 0.003806 
0.000154 0.003025 0.001839 
0.000076 0.003131 0.001840 
0.000000 0.003164 0.001839 
-0.000076 0.003131 0.001840 
-0.000154 0.003025 0.001839 
0.000000 0.002984 0.000000 
0.000000 0.003092 0.000000 
0.000000 0.003124 -0.000000 
0.000000 0.003092 -0.000000 
0.000000 0.002984 -0.000000 
-0.000154 0.003025 -0.001839 
-0.000076 0.003131 -0.001840 
0.000000 0.003164 -0.001839 
0.000076 0.003131 -0.001840 
0.000154 0.003025 -0.001839 
-0.000298 0.003143 -0.003806 
-0.000148 0.003250 -0.003809 
0.000000 0.003284 -0.003807 
0.000148 0.003250 -0.003809 
0.000298 0.003143 -0.003806 
0.000292 0.003870 0.004216 
0.000145 0.003976 0.004222 
0.000000 0.004010 0.004221 
-0.000145 0.003976 0.004222 
-0.000292 0.003870 0.004216 
0.000150 0.003755 0.002043 
0.000075 0.003861 0.002047 
0.000000 0.003895 0.002047 
-0.000075 0.003861 0.002047 
-0.000150 0.003755 0.002043 
0.000000 0.003716 0.000000 
0.000000 0.003823 0.000000 
0.000000 0.003856 -0.000000 
0.000000 0.003823 -0.000000 
0.000000 0.003716 -0.000000 
-0.000150 0.003755 -0.002043 
-0.000075 0.003861 -0.002047 
0.000000 0.003895 -0.002047 
0.000075 0.003861 -0.002047 
0.000150 0.003755 -0.002043 
-0.000292 0.003870 -0.004216 
-0.000145 0.003976 -0.004222 
0.000000 0.004010 -0.004221 
0.000145 0.003976 -0.004222 
0.000292 0.003870 -0.004216 
0.000284 0.004666 0.004614 
0.000142 0.004769 0.004622 
0.000000 0.004804 0.004622 
-0.000142 0.004769 0.004622 
-0.000284 0.004666 0.004614 
0.000146 0.004554 0.002241 
0.000073 0.004659 0.002248 
0.000000 0.004692 0.002248 
-0.000073 0.004659 0.002248 
-0.000146 0.004554 0.002241 
0.000000 0.004517 0.000000 
0.000000 0.004622 0.000000 
0.000000 0.004655 -0.000000 
0.000000 0.004622 -0.000000 
0.000000 0.004517 -0.000000 
-0.000146 0.004554 -0.002241 
-0.000073 0.004659 -0.002248 
0.000000 0.004692 -0.002248 
0.000073 0.004659 -0.002248 
0.000146 0.004554 -0.002241 
-0.000284 0.004666 -0.004614 
-0.000142 0.004769 -0.004622 
0.000000 0.004804 -0.004622 
0.000142 0.004769 -0.004622 
0.000284 0.004666 -0.004614 
0.000276 0.005527 0.004999 
0.000138 0.005628 0.005009 
0.000000 0.005662 0.005009 
-0.000138 0.005628 0.005009 
-0.000276 0.005527 0.004999 
0.000141 0.005420 0.002433 
0.000070 0.005522 0.002441 
0.000000 0.005555 0.002442 
-0.000070 0.005522 0.002441 
-0.000141 0.005420 0.002433 
0.000000 0.005383 0.000000 
0.000000 0.005486 0.000000 
0.000000 0.005519 -0.000000 
0.000000 0.005486 -0.000000 
0.000000 0.005383 -0.000000 
-0.000141 0.005420 -0.002433 
-0.000070 0.005522 -0.002441 
0.000000 0.005555 -0.002442 
0.000070 0.005522 -0.002441 
0.000141 0.005420 -0.002433 
-0.000276 0.005527 -0.004999 
-0.000138 0.005628 -0.005009 
0.000000 0.005662 -0.005009 
0.000138 0.005628 -0.005009 
0.000276 0.005527 -0.004999 
0.000267 0.006453 0.005371 
0.000134 0.006551 0.005382 
0.000000 0.006584 0.005382 
-0.000134 0.006551 0.005382 
-0.000267 0.006453 0.005371 
0.000137 0.006349 0.002619 
0.000068 0.006448 0.002627 
0.000000 0.006480 0.002629 
-0.000068 0.006448 0.002627 
-0.000137 0.006349 0.002619 
0.000000 0.006314 0.000000 
0.000000 0.006414 0.000000 
0.000000 0.006446 -0.000000 
0.000000 0.006414 -0.000000 
0.000000 0.006314 -0.000000 
-0.000137 0.006349 -0.002619 
-0.000068 0.006448 -0.002627 
0.000000 0.006480 -0.002629 
0.000068 0.006448 -0.002627 
0.000137 0.006349 -0.002619 
-0.000267 0.006453 -0.005371 
-0.000134 0.006551 -0.005382 
0.000000 0.006584 -0.005382 
0.000134 0.006551 -0.005382 
0.000267 0.006453 -0.005371 
0.000258 0.007439 0.005730 
0.000129 0.007534 0.005741 
0.000000 0.007566 0.005742 
-0.000129 0.007534 0.005741 
-0.000258 0.007439 0.005730 
0.000132 0.007339 0.002798 
0.000065 0.007435 0.002807 
0.000000 0.007467 0.002809 
-0.000065 0.007435 0.002807 
-0.000132 0.007339 0.002798 
0.000000 0.007305 0.000000 
0.000000 0.007402 0.000000 
0.000000 0.007433 -0.000000 
0.000000 0.007402 -0.000000 
0.000000 0.007305 -0.000000 
-0.000132 0.007339 -0.002798 
-0.000065 0.007435 -0.002807 
0.000000 0.007467 -0.002809 
0.000065 0.007435 -0.002807 
0.000132 0.007339 -0.002798 
-0.000258 0.007439 -0.005730 
-0.000129 0.007534 -0.005741 
0.000000 0.007566 -0.005742 
0.000129 0.007534 -0.005741 
0.000258 0.007439 -0.005730 
0.000248 0.008484 0.006075 
0.000125 0.008576 0.006088 
0.000000 0.008607 0.006089 
-0.000125 0.008576 0.006088 
-0.000248 0.008484 0.006075 
0.000127 0.008388 0.002971 
0.000063 0.008481 0.002980 
0.000000 0.008511 0.002982 
-0.000063 0.008481 0.002980 
-0.000127 0.008388 0.002971 
0.000000 0.008355 0.000000 
0.000000 0.008449 0.000000 
0.000000 0.008480 -0.000000 
0.000000 0.008449 -0.000000 
0.000000 0.008355 -0.000000 
-0.000127 0.008388 -0.002971 
-0.000063 0.008481 -0.002980 
0.000000 0.008511 -0.002982 
0.000063 0.008481 -0.002980 
0.000127 0.008388 -0.002971 
-0.000248 0.008484 -0.006075 
-0.000125 0.008576 -0.006088 
0.000000 0.008607 -0.006089 
0.000125 0.008576 -0.006088 
0.000248 0.008484 -0.006075 
0.000238 0.009586 0.006408 
0.000120 0.009675 0.006420 
0.000000 0.009705 0.006421 
-0.000120 0.009675 0.006420 
-0.000238 0.009586 0.006408 
0.000122 0.009494 0.003137 
0.000060 0.009583 0.003147 
0.000000 0.009613 0.003149 
-0.000060 0.009583 0.003147 
-0.000122 0.009494 0.003137 
0.000000 0.009462 0.000000 
0.000000 0.009553 0.000000 
0.000000 0.009582 -0.000000 
0.000000 0.009553 -0.000000 
0.000000 0.009462 -0.000000 
-0.000122 0.009494 -0.003137 
-0.000060 0.009583 -0.003147 
0.000000 0.009613 -0.003149 
0.000060 0.009583 -0.003147 
0.000122 0.009494 -0.003137 
-0.000238 0.009586 -0.006408 
-0.000120 0.009675 -0.006420 
0.000000 0.009705 -0.006421 
0.000120 0.009675 -0.006420 
0.000238 0.009586 -0.006408 
0.000229 0.010743 0.006727 
0.000115 0.010827 0.006740 
0.000000 0.010856 0.006741 
-0.000115 0.010827 0.006740 
-0.000229 0.010743 0.006727 
0.000117 0.010654 0.003296 
0.000058 0.010739 0.003306 
0.000000 0.010768 0.003309 
-0.000058 0.010739 0.003306 
-0.000117 0.010654 0.003296 
0.000000 0.010624 0.000000 
0.000000 0.010710 0.000000 
0.000000 0.010739 -0.000000 
0.000000 0.010710 -0.000000 
0.000000 0.010624 -0.000000 
-0.000117 0.010654 -0.003296 
-0.000058 0.010739 -0.003306 
0.000000 0.010768 -0.003309 
0.000058 0.010739 -0.003306 
0.000117 0.010654 -0.003296 
-0.000229 0.010743 -0.006727 
-0.000115 0.010827 -0.006740 
0.000000 0.010856 -0.006741 
0.000115 0.010827 -0.006740 
0.000229 0.010743 -0.006727 
0.000219 0.011951 0.007033 
0.000110 0.012032 0.007046 
0.000000 0.012060 0.007047 
-0.000110 0.012032 0.007046 
-0.000219 0.011951 0.007033 
0.000112 0.011866 0.003449 
0.000055 0.011948 0.003460 
0.000000 0.011975 0.003462 
-0.000055 0.011948 0.003459 
-0.000112 0.011866 0.003449 
0.000000 0.011837 0.000000 
0.000000 0.011920 0.000000 
0.000000 0.011947 -0.000000 
0.000000 0.011920 -0.000000 
0.000000 0.011837 -0.000000 
-0.000112 0.011866 -0.003449 
-0.000055 0.011948 -0.003460 
0.000000 0.011975 -0.003462 
0.000055 0.011948 -0.003460 
0.000112 0.011866 -0.003449 
-0.000219 0.011951 -0.007033 
-0.000110 0.012032 -0.007046 
0.000000 0.012060 -0.007047 
0.000110 0.012032 -0.007046 
0.000219 0.011951 -0.007033 
0.000209 0.013209 0.007325 
0.000105 0.013287 0.007338 
0.000000 0.013313 0.007339 
-0.000105 0.013287 0.007338 
-0.000209 0.013209 0.007325 
0.000107 0.013128 0.003596 
0.000053 0.013206 0.003606 
0.000000 0.013233 0.003608 
-0.000053 0.013206 0.003606 
-0.000107 0.013128 0.003596 
0.000000 0.013101 0.000000 
0.000000 0.013180 0.000000 
0.000000 0.013206 -0.000000 
0.000000 0.013180 -0.000000 
0.000000 0.013101 -0.000000 
-0.000107 0.013128 -0.003596 
-0.000053 0.013206 -0.003606 
0.000000 0.013233 -0.003608 
0.000053 0.013206 -0.003606 
0.000107 0.013128 -0.003596 
-0.000209 0.013209 -0.007325 
-0.000105 0.013287 -0.007338 
0.000000 0.013313 -0.007339 
0.000105 0.013287 -0.007338 
0.000209 0.013209 -0.007325 
0.000200 0.014515 0.007604 
0.000100 0.014589 0.007617 
0.000000 0.014614 0.007619 
-0.000100 0.014589 0.007617 
-0.000199 0.014515 0.007604 
0.000102 0.014438 0.003735 
0.000051 0.014512 0.003746 
0.000000 0.014537 0.003748 
-0.000050 0.014512 0.003746 
-0.000102 0.014438 0.003735 
0.000000 0.014411 0.000000 
0.000000 0.014487 0.000000 
0.000000 0.014512 -0.000000 
0.000000 0.014487 -0.000000 
0.000000 0.014411 -0.000000 
-0.000102 0.014438 -0.003735 
-0.000050 0.014512 -0.003746 
0.000000 0.014537 -0.003748 
0.000051 0.014512 -0.003746 
0.000102 0.014438 -0.003735 
-0.000199 0.014515 -0.007604 
-0.000100 0.014589 -0.007617 
0.000000 0.014614 -0.007619 
0.000100 0.014589 -0.007617 
0.000200 0.014515 -0.007604 
0.000190 0.015866 0.007870 
0.000095 0.015937 0.007883 
0.000000 0.015961 0.007884 
-0.000095 0.015937 0.007883 
-0.000190 0.015866 0.007870 
0.000097 0.015792 0.003868 
0.000048 0.015864 0.003879 
0.000000 0.015888 0.003881 
-0.000048 0.015864 0.003879 
-0.000097 0.015792 0.003868 
0.000000 0.015768 0.000000 
0.000000 0.015840 0.000000 
0.000000 0.015863 -0.000000 
0.000000 0.015840 -0.000000 
0.000000 0.015768 -0.000000 
-0.000097 0.015792 -0.003868 
-0.000048 0.015864 -0.003879 
0.000000 0.015888 -0.003881 
0.000048 0.015864 -0.003879 
0.000097 0.015792 -0.003868 
-0.000190 0.015866 -0.007870 
-0.000095 0.015937 -0.007883 
0.000000 0.015961 -0.007884 
0.000095 0.015937 -0.007883 
0.000190 0.015866 -0.007870 
0.000180 0.017260 0.008123 
0.000090 0.017327 0.008136 
0.000000 0.017350 0.008137 
-0.000090 0.017327 0.008136 
-0.000180 0.017260 0.008123 
0.000092 0.017191 0.003995 
0.000046 0.017258 0.004005 
0.000000 0.017281 0.004008 
-0.000046 0.017258 0.004005 
-0.000092 0.017191 0.003995 
0.000000 0.017167 0.000000 
0.000000 0.017235 0.000000 
0.000000 0.017258 -0.000000 
0.000000 0.017235 -0.000000 
0.000000 0.017167 -0.000000 
-0.000092 0.017191 -0.003995 
-0.000046 0.017258 -0.004005 
0.000000 0.017281 -0.004008 
0.000046 0.017258 -0.004005 
0.000092 0.017191 -0.003995 
-0.000180 0.017260 -0.008123 
-0.000090 0.017327 -0.008136 
0.000000 0.017350 -0.008137 
0.000090 0.017327 -0.008136 
0.000180 0.017260 -0.008123 
0.000170 0.018696 0.008362 
0.000086 0.018759 0.008375 
0.000000 0.018781 0.008376 
-0.000086 0.018759 0.008375 
-0.000170 0.018696 0.008362 
0.000087 0.018629 0.004115 
0.000043 0.018693 0.004125 
0.000000 0.018715 0.004127 
-0.000043 0.018693 0.004125 
-0.000087 0.018629 0.004115 
0.000000 0.018607 0.000000 
0.000000 0.018672 0.000000 
0.000000 0.018693 -0.000000 
0.000000 0.018672 -0.000000 
0.000000 0.018607 -0.000000 
-0.000087 0.018629 -0.004115 
-0.000043 0.018693 -0.004125 
0.000000 0.018715 -0.004127 
0.000043 0.018693 -0.004125 
0.000087 0.018629 -0.004115 
-0.000170 0.018696 -0.008362 
-0.000086 0.018759 -0.008375 
0.000000 0.018781 -0.008376 
0.000086 0.018759 -0.008375 
0.000170 0.018696 -0.008362 
0.000161 0.020169 0.008588 
0.000081 0.020229 0.008601 
0.000000 0.020250 0.008602 
-0.000081 0.020229 0.008601 
-0.000161 0.020170 0.008588 
0.000082 0.020107 0.004228 
0.000041 0.020167 0.004238 
0.000000 0.020188 0.004240 
-0.000041 0.020167 0.004238 
-0.000082 0.020107 0.004228 
0.000000 0.020086 0.000000 
0.000000 0.020147 0.000000 
0.000000 0.020167 -0.000000 
0.000000 0.020147 -0.000000 
0.000000 0.020086 -0.000000 
-0.000082 0.020107 -0.004228 
-0.000041 0.020167 -0.004238 
0.000000 0.020188 -0.004240 
0.000041 0.020167 -0.004238 
0.000082 0.020107 -0.004228 
-0.000161 0.020169 -0.008588 
-0.000081 0.020229 -0.008601 
0.000000 0.020250 -0.008602 
0.000081 0.020229 -0.008601 
0.000161 0.020170 -0.008588 
0.000151 0.021680 0.008801 
0.000076 0.021736 0.008814 
0.000000 0.021755 0.008815 
-0.000076 0.021736 0.008814 
-0.000151 0.021680 0.008801 
0.000077 0.021621 0.004334 
0.000038 0.021678 0.004344 
0.000000 0.021697 0.004347 
-0.000038 0.021678 0.004344 
-0.000077 0.021621 0.004334 
0.000000 0.021601 0.000000 
0.000000 0.021659 0.000000 
0.000000 0.021677 -0.000000 
0.000000 0.021659 -0.000000 
0.000000 0.021601 -0.000000 
-0.000077 0.021621 -0.004334 
-0.000038 0.021678 -0.004344 
0.000000 0.021697 -0.004347 
0.000038 0.021678 -0.004344 
0.000077 0.021621 -0.004334 
-0.000151 0.021680 -0.008801 
-0.000076 0.021736 -0.008814 
0.000000 0.021755 -0.008815 
0.000076 0.021736 -0.008814 
0.000151 0.021680 -0.008801 
0.000141 0.023224 0.009001 
0.000071 0.023277 0.009014 
0.000000 0.023295 0.009015 
-0.000071 0.023277 0.009013 
-0.000141 0.023224 0.009001 
0.000072 0.023169 0.004434 
0.000036 0.023223 0.004444 
0.000000 0.023240 0.004447 
-0.000036 0.023223 0.004444 
-0.000072 0.023169 0.004434 
0.000000 0.023151 0.000000 
0.000000 0.023204 0.000000 
0.000000 0.023222 -0.000000 
0.000000 0.023204 -0.000000 
0.000000 0.023151 -0.000000 
-0.000072 0.023169 -0.004434 
-0.000036 0.023223 -0.004444 
0.000000 0.023240 -0.004447 
0.000036 0.023223 -0.004444 
0.000072 0.023169 -0.004434 
-0.000141 0.023224 -0.009001 
-0.000071 0.023277 -0.009013 
0.000000 0.023295 -0.009015 
0.000071 0.023277 -0.009014 
0.000141 0.023224 -0.009001 
0.000132 0.024801 0.009187 
0.000066 0.024850 0.009200 
0.000000 0.024867 0.009201 
-0.000066 0.024850 0.009200 
-0.000132 0.024801 0.009187 
0.000067 0.024750 0.004528 
0.000033 0.024799 0.004538 
0.000000 0.024816 0.004540 
-0.000033 0.024799 0.004538 
-0.000067 0.024750 0.004528 
0.000000 0.024732 0.000000 
0.000000 0.024782 0.000000 
0.000000 0.024799 -0.000000 
0.000000 0.024782 -0.000000 
0.000000 0.024732 -0.000000 
-0.000067 0.024750 -0.004528 
-0.000033 0.024799 -0.004538 
0.000000 0.024816 -0.004540 
0.000033 0.024799 -0.004538 
0.000067 0.024750 -0.004528 
-0.000132 0.024801 -0.009187 
-0.000066 0.024850 -0.009200 
0.000000 0.024867 -0.009201 
0.000066 0.024850 -0.009200 
0.000132 0.024801 -0.009187 
0.000122 0.026407 0.009360 
0.000061 0.026453 0.009373 
0.000000 0.026468 0.009374 
-0.000061 0.026453 0.009373 
-0.000122 0.026407 0.009360 
0.000062 0.026360 0.004614 
0.000031 0.026406 0.004624 
0.000000 0.026421 0.004627 
-0.000031 0.026406 0.004624 
-0.000062 0.026360 0.004614 
0.000000 0.026344 0.000000 
0.000000 0.026390 0.000000 
0.000000 0.026405 -0.000000 
0.000000 0.026390 -0.000000 
0.000000 0.026344 -0.000000 