<?xml version="1.0"?>
<VTKFile type="UnstructuredGrid"  version="0.1"  >
<UnstructuredGrid>
<Piece  NumberOfPoints="1025" NumberOfCells="640">
<Points>
<DataArray  type="Float32"  NumberOfComponents="3"  format="ascii">
0.000000 0.000000 0.000000 
0.750000 0.000000 0.000000 
1.500000 0.000000 0.000000 
2.250000 0.000000 0.000000 
3.000000 0.000000 0.000000 
0.000000 0.750000 0.000000 
0.750000 0.750000 0.000000 
1.500000 0.750000 0.000000 
2.250000 0.750000 0.000000 
3.000000 0.750000 0.000000 
0.000000 1.500000 0.000000 
0.750000 1.500000 0.000000 
1.500000 1.500000 0.000000 
2.250000 1.500000 0.000000 
3.000000 1.500000 0.000000 
0.000000 2.250000 0.000000 
0.750000 2.250000 0.000000 
1.500000 2.250000 0.000000 
2.250000 2.250000 0.000000 
3.000000 2.250000 0.000000 
0.000000 3.000000 0.000000 
0.750000 3.000000 0.000000 
1.500000 3.000000 0.000000 
2.250000 3.000000 0.000000 
3.000000 3.000000 0.000000 
0.000000 0.000000 0.250000 
0.750000 0.000000 0.250000 
1.500000 0.000000 0.250000 
2.250000 0.000000 0.250000 
3.000000 0.000000 0.250000 
0.000000 0.750000 0.250000 
0.750000 0.750000 0.250000 
1.500000 0.750000 0.250000 
2.250000 0.750000 0.250000 
3.000000 0.750000 0.250000 
0.000000 1.500000 0.250000 
0.750000 1.500000 0.250000 
1.500000 1.500000 0.250000 
2.250000 1.500000 0.250000 
3.000000 1.500000 0.250000 
0.000000 2.250000 0.250000 
0.750000 2.250000 0.250000 
1.500000 2.250000 0.250000 
2.250000 2.250000 0.250000 
3.000000 2.250000 0.250000 
0.000000 3.000000 0.250000 
0.750000 3.000000 0.250000 
1.500000 3.000000 0.250000 
2.250000 3.000000 0.250000 
3.000000 3.000000 0.250000 
0.000000 0.000000 0.500000 
0.750000 0.000000 0.500000 
1.500000 0.000000 0.500000 
2.250000 0.000000 0.500000 
3.000000 0.000000 0.500000 
0.000000 0.750000 0.500000 
0.750000 0.750000 0.500000 
1.500000 0.750000 0.500000 
2.250000 0.750000 0.500000 
3.000000 0.750000 0.500000 
0.000000 1.500000 0.500000 
0.750000 1.500000 0.500000 
1.500000 1.500000 0.500000 
2.250000 1.500000 0.500000 
3.000000 1.500000 0.500000 
0.000000 2.250000 0.500000 
0.750000 2.250000 0.500000 
1.500000 2.250000 0.500000 
2.250000 2.250000 0.500000 
3.000000 2.250000 0.500000 
0.000000 3.000000 0.500000 
0.750000 3.000000 0.500000 
1.500000 3.000000 0.500000 
2.250000 3.000000 0.500000 
3.000000 3.000000 0.500000 
0.000000 0.000000 0.750000 
0.750000 0.000000 0.750000 
1.500000 0.000000 0.750000 
2.250000 0.000000 0.750000 
3.000000 0.000000 0.750000 
0.000000 0.750000 0.750000 
0.750000 0.750000 0.750000 
1.500000 0.750000 0.750000 
2.250000 0.750000 0.750000 
3.000000 0.750000 0.750000 
0.000000 1.500000 0.750000 
0.750000 1.500000 0.750000 
1.500000 1.500000 0.750000 
2.250000 1.500000 0.750000 
3.000000 1.500000 0.750000 
0.000000 2.250000 0.750000 
0.750000 2.250000 0.750000 
1.500000 2.250000 0.750000 
2.250000 2.250000 0.750000 
3.000000 2.250000 0.750000 
0.000000 3.000000 0.750000 
0.750000 3.000000 0.750000 
1.500000 3.000000 0.750000 
2.250000 3.000000 0.750000 
3.000000 3.000000 0.750000 
0.000000 0.000000 1.000000 
0.750000 0.000000 1.000000 
1.500000 0.000000 1.000000 
2.250000 0.000000 1.000000 
3.000000 0.000000 1.000000 
0.000000 0.750000 1.000000 
0.750000 0.750000 1.000000 
1.500000 0.750000 1.000000 
2.250000 0.750000 1.000000 
3.000000 0.750000 1.000000 
0.000000 1.500000 1.000000 
0.750000 1.500000 1.000000 
1.500000 1.500000 1.000000 
2.250000 1.500000 1.000000 
3.000000 1.500000 1.000000 
0.000000 2.250000 1.000000 
0.750000 2.250000 1.000000 
1.500000 2.250000 1.000000 
2.250000 2.250000 1.000000 
3.000000 2.250000 1.000000 
0.000000 3.000000 1.000000 
0.750000 3.000000 1.000000 
1.500000 3.000000 1.000000 
2.250000 3.000000 1.000000 
3.000000 3.000000 1.000000 
0.000000 0.000000 1.250000 
0.750000 0.000000 1.250000 
1.500000 0.000000 1.250000 
2.250000 0.000000 1.250000 
3.000000 0.000000 1.250000 
0.000000 0.750000 1.250000 
0.750000 0.750000 1.250000 
1.500000 0.750000 1.250000 
2.250000 0.750000 1.250000 
3.000000 0.750000 1.250000 
0.000000 1.500000 1.250000 
0.750000 1.500000 1.250000 
1.500000 1.500000 1.250000 
2.250000 1.500000 1.250000 
3.000000 1.500000 1.250000 
0.000000 2.250000 1.250000 
0.750000 2.250000 1.250000 
1.500000 2.250000 1.250000 
2.250000 2.250000 1.250000 
3.000000 2.250000 1.250000 
0.000000 3.000000 1.250000 
0.750000 3.000000 1.250000 
1.500000 3.000000 1.250000 
2.250000 3.000000 1.250000 
3.000000 3.000000 1.250000 
0.000000 0.000000 1.500000 
0.750000 0.000000 1.500000 
1.500000 0.000000 1.500000 
2.250000 0.000000 1.500000 
3.000000 0.000000 1.500000 
0.000000 0.750000 1.500000 
0.750000 0.750000 1.500000 
1.500000 0.750000 1.500000 
2.250000 0.750000 1.500000 
3.000000 0.750000 1.500000 
0.000000 1.500000 1.500000 
0.750000 1.500000 1.500000 
1.500000 1.500000 1.500000 
2.250000 1.500000 1.500000 
3.000000 1.500000 1.500000 
0.000000 2.250000 1.500000 
0.750000 2.250000 1.500000 
1.500000 2.250000 1.500000 
2.250000 2.250000 1.500000 
3.000000 2.250000 1.500000 
0.000000 3.000000 1.500000 
0.750000 3.000000 1.500000 
1.500000 3.000000 1.500000 
2.250000 3.000000 1.500000 
3.000000 3.000000 1.500000 
0.000000 0.000000 1.750000 
0.750000 0.000000 1.750000 
1.500000 0.000000 1.750000 
2.250000 0.000000 1.750000 
3.000000 0.000000 1.750000 
0.000000 0.750000 1.750000 
0.750000 0.750000 1.750000 
1.500000 0.750000 1.750000 
2.250000 0.750000 1.750000 
3.000000 0.750000 1.750000 
0.000000 1.500000 1.750000 
0.750000 1.500000 1.750000 
1.500000 1.500000 1.750000 
2.250000 1.500000 1.750000 
3.000000 1.500000 1.750000 
0.000000 2.250000 1.750000 
0.750000 2.250000 1.750000 
1.500000 2.250000 1.750000 
2.250000 2.250000 1.750000 
3.000000 2.250000 1.750000 
0.000000 3.000000 1.750000 
0.750000 3.000000 1.750000 
1.500000 3.000000 1.750000 
2.250000 3.000000 1.750000 
3.000000 3.000000 1.750000 
0.000000 0.000000 2.000000 
0.750000 0.000000 2.000000 
1.500000 0.000000 2.000000 
2.250000 0.000000 2.000000 
3.000000 0.000000 2.000000 
0.000000 0.750000 2.000000 
0.750000 0.750000 2.000000 
1.500000 0.750000 2.000000 
2.250000 0.750000 2.000000 
3.000000 0.750000 2.000000 
0.000000 1.500000 2.000000 
0.750000 1.500000 2.000000 
1.500000 1.500000 2.000000 
2.250000 1.500000 2.000000 
3.000000 1.500000 2.000000 
0.000000 2.250000 2.000000 
0.750000 2.250000 2.000000 
1.500000 2.250000 2.000000 
2.250000 2.250000 2.000000 
3.000000 2.250000 2.000000 
0.000000 3.000000 2.000000 
0.750000 3.000000 2.000000 
1.500000 3.000000 2.000000 
2.250000 3.000000 2.000000 
3.000000 3.000000 2.000000 
0.000000 0.000000 2.250000 
0.750000 0.000000 2.250000 
1.500000 0.000000 2.250000 
2.250000 0.000000 2.250000 
3.000000 0.000000 2.250000 
0.000000 0.750000 2.250000 
0.750000 0.750000 2.250000 
1.500000 0.750000 2.250000 
2.250000 0.750000 2.250000 
3.000000 0.750000 2.250000 
0.000000 1.500000 2.250000 
0.750000 1.500000 2.250000 
1.500000 1.500000 2.250000 
2.250000 1.500000 2.250000 
3.000000 1.500000 2.250000 
0.000000 2.250000 2.250000 
0.750000 2.250000 2.250000 
1.500000 2.250000 2.250000 
2.250000 2.250000 2.250000 
3.000000 2.250000 2.250000 
0.000000 3.000000 2.250000 
0.750000 3.000000 2.250000 
1.500000 3.000000 2.250000 
2.250000 3.000000 2.250000 
3.000000 3.000000 2.250000 
0.000000 0.000000 2.500000 
0.750000 0.000000 2.500000 
1.500000 0.000000 2.500000 
2.250000 0.000000 2.500000 
3.000000 0.000000 2.500000 
0.000000 0.750000 2.500000 
0.750000 0.750000 2.500000 
1.500000 0.750000 2.500000 
2.250000 0.750000 2.500000 
3.000000 0.750000 2.500000 
0.000000 1.500000 2.500000 
0.750000 1.500000 2.500000 
1.500000 1.500000 2.500000 
2.250000 1.500000 2.500000 
3.000000 1.500000 2.500000 
0.000000 2.250000 2.500000 
0.750000 2.250000 2.500000 
1.500000 2.250000 2.500000 
2.250000 2.250000 2.500000 
3.000000 2.250000 2.500000 
0.000000 3.000000 2.500000 
0.750000 3.000000 2.500000 
1.500000 3.000000 2.500000 
2.250000 3.000000 2.500000 
3.000000 3.000000 2.500000 
0.000000 0.000000 2.750000 
0.750000 0.000000 2.750000 
1.500000 0.000000 2.750000 
2.250000 0.000000 2.750000 
3.000000 0.000000 2.750000 
0.000000 0.750000 2.750000 
0.750000 0.750000 2.750000 
1.500000 0.750000 2.750000 
2.250000 0.750000 2.750000 
3.000000 0.750000 2.750000 
0.000000 1.500000 2.750000 
0.750000 1.500000 2.750000 
1.500000 1.500000 2.750000 
2.250000 1.500000 2.750000 
3.000000 1.500000 2.750000 
0.000000 2.250000 2.750000 
0.750000 2.250000 2.750000 
1.500000 2.250000 2.750000 
2.250000 2.250000 2.750000 
3.000000 2.250000 2.750000 
0.000000 3.000000 2.750000 
0.750000 3.000000 2.750000 
1.500000 3.000000 2.750000 
2.250000 3.000000 2.750000 
3.000000 3.000000 2.750000 
0.000000 0.000000 3.000000 
0.750000 0.000000 3.000000 
1.500000 0.000000 3.000000 
2.250000 0.000000 3.000000 
3.000000 0.000000 3.000000 
0.000000 0.750000 3.000000 
0.750000 0.750000 3.000000 
1.500000 0.750000 3.000000 
2.250000 0.750000 3.000000 
3.000000 0.750000 3.000000 
0.000000 1.500000 3.000000 
0.750000 1.500000 3.000000 
1.500000 1.500000 3.000000 
2.250000 1.500000 3.000000 
3.000000 1.500000 3.000000 
0.000000 2.250000 3.000000 
0.750000 2.250000 3.000000 
1.500000 2.250000 3.000000 
2.250000 2.250000 3.000000 
3.000000 2.250000 3.000000 
0.000000 3.000000 3.000000 
0.750000 3.000000 3.000000 
1.500000 3.000000 3.000000 
2.250000 3.000000 3.000000 
3.000000 3.000000 3.000000 
0.000000 0.000000 3.250000 
0.750000 0.000000 3.250000 
1.500000 0.000000 3.250000 
2.250000 0.000000 3.250000 
3.000000 0.000000 3.250000 
0.000000 0.750000 3.250000 
0.750000 0.750000 3.250000 
1.500000 0.750000 3.250000 
2.250000 0.750000 3.250000 
3.000000 0.750000 3.250000 
0.000000 1.500000 3.250000 
0.750000 1.500000 3.250000 
1.500000 1.500000 3.250000 
2.250000 1.500000 3.250000 
3.000000 1.500000 3.250000 
0.000000 2.250000 3.250000 
0.750000 2.250000 3.250000 
1.500000 2.250000 3.250000 
2.250000 2.250000 3.250000 
3.000000 2.250000 3.250000 
0.000000 3.000000 3.250000 
0.750000 3.000000 3.250000 
1.500000 3.000000 3.250000 
2.250000 3.000000 3.250000 
[...]
<PointData  Scalars="u">
<DataArray  type="Float32"  Name="VectorField1"  NumberOfComponents="3" format="ascii">
0.000000 0.000000 0.000000 
0.000000 0.000000 0.000000 
0.000000 0.000000 0.000000 
0.000000 0.000000 0.000000 
0.000000 0.000000 0.000000 
0.000000 0.000000 0.000000 
0.000000 0.000000 0.000000 
0.000000 0.000000 0.000000 
0.000000 0.000000 0.000000 
0.000000 0.000000 0.000000 
0.000000 0.000000 0.000000 
0.000000 0.000000 0.000000 
0.000000 0.000000 0.000000 
0.000000 0.000000 0.000000 
0.000000 0.000000 0.000000 
0.000000 0.000000 0.000000 
0.000000 0.000000 0.000000 
0.000000 0.000000 0.000000 
0.000000 0.000000 0.000000 
0.000000 0.000000 0.000000 
0.000000 0.000000 0.000000 
0.000000 0.000000 0.000000 
0.000000 0.000000 0.000000 
0.000000 0.000000 0.000000 
0.000000 0.000000 0.000000 
0.000288 0.000305 0.001126 
0.000074 0.000369 0.001046 
-0.000000 0.000382 0.001071 
-0.000074 0.000369 0.001046 
-0.000288 0.000305 0.001126 
0.000144 0.000107 0.000494 
0.000038 0.000176 0.000432 
-0.000000 0.000185 0.000438 
-0.000038 0.000176 0.000432 
-0.000144 0.000107 0.000494 
0.000000 0.000095 0.000000 
0.000000 0.000168 0.000000 
0.000000 0.000178 0.000000 
0.000000 0.000168 -0.000000 
0.000000 0.000095 -0.000000 
-0.000144 0.000107 -0.000494 
-0.000038 0.000176 -0.000432 
0.000000 0.000185 -0.000438 
0.000038 0.000176 -0.000432 
0.000144 0.000107 -0.000494 
-0.000288 0.000305 -0.001126 
-0.000074 0.000369 -0.001046 
0.000000 0.000382 -0.001071 
0.000074 0.000369 -0.001046 
0.000288 0.000305 -0.001126 
0.000432 0.000692 0.002153 
0.000156 0.000811 0.002065 
-0.000000 0.000838 0.002080 
-0.000156 0.000811 0.002065 
-0.000432 0.000692 0.002153 
0.000224 0.000446 0.000981 
0.000082 0.000564 0.000908 
0.000000 0.000587 0.000906 
-0.000082 0.000564 0.000908 
-0.000224 0.000446 0.000981 
0.000000 0.000392 0.000000 
0.000000 0.000514 0.000000 
0.000000 0.000537 0.000000 
0.000000 0.000514 -0.000000 
0.000000 0.000392 -0.000000 
-0.000224 0.000446 -0.000981 
-0.000082 0.000564 -0.000908 
0.000000 0.000587 -0.000906 
0.000082 0.000564 -0.000908 
0.000224 0.000446 -0.000981 
-0.000431 0.000692 -0.002153 
-0.000156 0.000811 -0.002065 
0.000000 0.000838 -0.002080 
0.000156 0.000811 -0.002065 
0.000432 0.000692 -0.002153 
0.000515 0.001225 0.003126 
0.000217 0.001383 0.003053 
-0.000000 0.001423 0.003056 
-0.000217 0.001383 0.003053 
-0.000515 0.001225 0.003126 
0.000270 0.000966 0.001456 
0.000114 0.001120 0.001394 
0.000000 0.001156 0.001385 
-0.000114 0.001120 0.001394 
-0.000270 0.000966 0.001456 
0.000000 0.000891 0.000000 
0.000000 0.001047 0.000000 
0.000000 0.001082 0.000000 
0.000000 0.001047 -0.000000 
0.000000 0.000891 -0.000000 
-0.000270 0.000966 -0.001456 
-0.000114 0.001120 -0.001394 
0.000000 0.001156 -0.001385 
0.000114 0.001120 -0.001394 
0.000270 0.000966 -0.001456 
-0.000515 0.001225 -0.003126 
-0.000217 0.001383 -0.003053 
0.000000 0.001423 -0.003056 
0.000217 0.001383 -0.003053 
0.000515 0.001225 -0.003126 
0.000564 0.001917 0.004064 
0.000256 0.002099 0.004011 
0.000000 0.002150 0.004008 
-0.000256 0.002099 0.004011 
-0.000564 0.001917 0.004064 
0.000296 0.001656 0.001919 
0.000135 0.001835 0.001873 
0.000000 0.001882 0.001862 
-0.000135 0.001835 0.001873 
-0.000296 0.001656 0.001919 
0.000000 0.001572 0.000000 
0.000000 0.001754 0.000000 
0.000000 0.001798 0.000000 
0.000000 0.001753 -0.000000 
0.000000 0.001572 -0.000000 
-0.000296 0.001656 -0.001919 
-0.000135 0.001835 -0.001873 
0.000000 0.001882 -0.001862 
0.000135 0.001835 -0.001873 
0.000296 0.001656 -0.001919 
-0.000564 0.001917 -0.004064 
-0.000256 0.002099 -0.004011 
0.000000 0.002150 -0.004008 
0.000256 0.002099 -0.004011 
0.000564 0.001917 -0.004064 
0.000590 0.002766 0.004976 
0.000279 0.002964 0.004942 
0.000000 0.003023 0.004937 
-0.000279 0.002964 0.004942 
-0.000590 0.002766 0.004976 
0.000308 0.002509 0.002371 
0.000147 0.002705 0.002341 
0.000000 0.002760 0.002331 
-0.000147 0.002705 0.002341 
-0.000308 0.002509 0.002371 
0.000000 0.002423 0.000000 
0.000000 0.002621 0.000000 
0.000000 0.002673 0.000000 
0.000000 0.002621 -0.000000 
0.000000 0.002423 -0.000000 
-0.000308 0.002509 -0.002371 
-0.000147 0.002705 -0.002341 
0.000000 0.002760 -0.002331 
0.000147 0.002705 -0.002341 
0.000308 0.002509 -0.002371 
-0.000590 0.002766 -0.004976 
-0.000279 0.002964 -0.004942 
0.000000 0.003023 -0.004937 
0.000279 0.002964 -0.004942 
0.000590 0.002766 -0.004976 
0.000601 0.003771 0.005865 
0.000291 0.003978 0.005847 
0.000000 0.004042 0.005842 
-0.000291 0.003978 0.005847 
-0.000601 0.003771 0.005865 
0.000313 0.003520 0.002812 
0.000152 0.003726 0.002796 
0.000000 0.003786 0.002788 
-0.000152 0.003726 0.002796 
-0.000312 0.003520 0.002812 
0.000000 0.003435 0.000000 
0.000000 0.003643 0.000000 
0.000000 0.003701 0.000000 
0.000000 0.003643 -0.000000 
0.000000 0.003435 -0.000000 
-0.000312 0.003520 -0.002812 
-0.000152 0.003726 -0.002796 
0.000000 0.003786 -0.002788 
0.000152 0.003726 -0.002796 
0.000313 0.003520 -0.002812 
-0.000601 0.003771 -0.005864 
-0.000291 0.003978 -0.005847 
0.000000 0.004042 -0.005841 
0.000291 0.003978 -0.005847 
0.000601 0.003771 -0.005865 
0.000601 0.004927 0.006730 
0.000296 0.005138 0.006725 
0.000000 0.005205 0.006721 
-0.000295 0.005138 0.006725 
-0.000601 0.004927 0.006730 
0.000311 0.004683 0.003242 
0.000153 0.004894 0.003237 
0.000000 0.004958 0.003231 
-0.000153 0.004894 0.003237 
-0.000311 0.004683 0.003242 
0.000000 0.004600 0.000000 
0.000000 0.004813 0.000000 
0.000000 0.004875 0.000000 
0.000000 0.004813 -0.000000 
0.000000 0.004600 -0.000000 
-0.000311 0.004683 -0.003242 
-0.000153 0.004894 -0.003237 
0.000000 0.004958 -0.003231 
0.000153 0.004894 -0.003237 
0.000311 0.004683 -0.003242 
-0.000601 0.004927 -0.006730 
-0.000295 0.005138 -0.006725 
0.000000 0.005205 -0.006721 
0.000296 0.005138 -0.006725 
0.000601 0.004927 -0.006730 
0.000594 0.006230 0.007573 
0.000295 0.006441 0.007577 
0.000000 0.006510 0.007574 
-0.000295 0.006441 0.007577 
-0.000594 0.006229 0.007572 
0.000307 0.005992 0.003661 
0.000152 0.006205 0.003664 
0.000000 0.006271 0.003660 
-0.000152 0.006205 0.003664 
-0.000306 0.005992 0.003661 
0.000000 0.005912 0.000000 
0.000000 0.006127 0.000000 
0.000000 0.006191 0.000000 
0.000000 0.006127 -0.000000 
0.000000 0.005912 -0.000000 
-0.000306 0.005992 -0.003661 
-0.000152 0.006205 -0.003663 
0.000000 0.006271 -0.003660 
0.000152 0.006205 -0.003664 
0.000307 0.005992 -0.003661 
-0.000594 0.006230 -0.007572 
-0.000294 0.006441 -0.007577 
0.000000 0.006510 -0.007574 
0.000295 0.006441 -0.007577 
0.000594 0.006229 -0.007573 
0.000583 0.007674 0.008391 
0.000291 0.007884 0.008403 
0.000000 0.007953 0.008401 
-0.000290 0.007884 0.008403 
-0.000582 0.007674 0.008391 
0.000300 0.007444 0.004069 
0.000149 0.007655 0.004077 
0.000000 0.007722 0.004076 
-0.000149 0.007655 0.004077 
-0.000300 0.007444 0.004068 
0.000000 0.007366 0.000000 
0.000000 0.007580 0.000000 
0.000000 0.007645 0.000000 
0.000000 0.007580 -0.000000 
0.000000 0.007366 -0.000000 
-0.000299 0.007444 -0.004068 
-0.000149 0.007655 -0.004077 
0.000000 0.007722 -0.004076 
0.000149 0.007655 -0.004077 
0.000300 0.007444 -0.004069 
-0.000582 0.007674 -0.008391 
-0.000290 0.007884 -0.008402 
0.000000 0.007953 -0.008401 
0.000291 0.007884 -0.008403 
0.000583 0.007674 -0.008391 
0.000568 0.009255 0.009185 
0.000284 0.009461 0.009202 
0.000000 0.009530 0.009201 
-0.000284 0.009461 0.009202 
-0.000568 0.009255 0.009185 
0.000292 0.009032 0.004464 
0.000145 0.009240 0.004477 
0.000000 0.009307 0.004477 
-0.000145 0.009240 0.004477 
-0.000291 0.009032 0.004464 
0.000000 0.008957 0.000000 
0.000000 0.009167 0.000000 
0.000000 0.009233 0.000000 
0.000000 0.009167 -0.000000 
0.000000 0.008957 -0.000000 
-0.000291 0.009032 -0.004464 
-0.000145 0.009240 -0.004476 
0.000000 0.009307 -0.004477 
0.000145 0.009240 -0.004477 
0.000292 0.009032 -0.004464 
-0.000568 0.009255 -0.009185 
-0.000284 0.009461 -0.009201 
0.000000 0.009530 -0.009201 
0.000284 0.009461 -0.009202 
0.000568 0.009255 -0.009185 
0.000552 0.010968 0.009955 
0.000277 0.011170 0.009974 
0.000000 0.011237 0.009975 
-0.000276 0.011170 0.009974 
-0.000552 0.010968 0.009955 
0.000283 0.010752 0.004848 
0.000141 0.010956 0.004863 
0.000000 0.011022 0.004865 
-0.000140 0.010956 0.004863 
-0.000282 0.010752 0.004848 
0.000000 0.010680 0.000000 
0.000000 0.010886 0.000000 
0.000000 0.010951 0.000000 
0.000000 0.010885 -0.000000 
0.000000 0.010680 -0.000000 
-0.000282 0.010752 -0.004848 
-0.000140 0.010956 -0.004863 
0.000000 0.011022 -0.004865 
0.000141 0.010956 -0.004863 
0.000283 0.010752 -0.004848 
-0.000551 0.010968 -0.009954 
-0.000276 0.011170 -0.009974 
0.000000 0.011237 -0.009974 
0.000277 0.011170 -0.009974 
0.000552 0.010968 -0.009955 
0.000534 0.012808 0.010699 
0.000268 0.013004 0.010721 
0.000000 0.013070 0.010722 
-0.000268 0.013004 0.010721 
-0.000534 0.012808 0.010699 
0.000273 0.012600 0.005220 
0.000136 0.012798 0.005236 
0.000000 0.012863 0.005239 
-0.000136 0.012798 0.005236 
-0.000273 0.012600 0.005219 
0.000000 0.012530 0.000000 
0.000000 0.012730 0.000000 
0.000000 0.012795 0.000000 
0.000000 0.012730 -0.000000 
0.000000 0.012530 -0.000000 
-0.000273 0.012600 -0.005219 
-0.000136 0.012798 -0.005236 
0.000000 0.012863 -0.005239 
0.000136 0.012798 -0.005236 
0.000274 0.012600 -0.005219 
-0.000534 0.012808 -0.010699 
-0.000268 0.013004 -0.010720 
0.000000 0.013070 -0.010722 
0.000268 0.013004 -0.010721 
0.000535 0.012808 -0.010699 
0.000516 0.014771 0.011418 
0.000259 0.014961 0.011441 
0.000000 0.015026 0.011442 
-0.000259 0.014961 0.011441 
-0.000516 0.014771 0.011417 
0.000264 0.014570 0.005578 
0.000131 0.014763 0.005596 
0.000000 0.014826 0.005600 
-0.000131 0.014763 0.005596 
-0.000263 0.014570 0.005578 
0.000000 0.014503 0.000000 
0.000000 0.014697 0.000000 
0.000000 0.014760 0.000000 
0.000000 0.014697 -0.000000 
0.000000 0.014503 -0.000000 
-0.000263 0.014570 -0.005578 
-0.000131 0.014763 -0.005596 
0.000000 0.014826 -0.005600 
0.000131 0.014763 -0.005596 
0.000264 0.014570 -0.005578 
-0.000516 0.014771 -0.011417 
-0.000259 0.014961 -0.011441 
0.000000 0.015025 -0.011442 
0.000259 0.014961 -0.011441 
0.000516 0.014771 -0.011418 
0.000498 0.016852 0.012111 
0.000250 0.017036 0.012135 
0.000000 0.017098 0.012137 
-0.000250 0.017036 0.012135 
-0.000497 0.016852 0.012110 
0.000254 0.016659 0.005925 
0.000127 0.016845 0.005943 
0.000000 0.016906 0.005947 
-0.000126 0.016845 0.005943 
-0.000254 0.016659 0.005924 
0.000000 0.016594 0.000000 
0.000000 0.016781 0.000000 
0.000000 0.016842 0.000000 
0.000000 0.016781 -0.000000 
0.000000 0.016594 -0.000000 
-0.000254 0.016659 -0.005924 
-0.000126 0.016845 -0.005943 
0.000000 0.016906 -0.005947 
0.000127 0.016845 -0.005943 
0.000254 0.016659 -0.005924 
-0.000497 0.016852 -0.012110 
-0.000249 0.017036 -0.012134 
0.000000 0.017098 -0.012136 
0.000250 0.017036 -0.012135 
0.000498 0.016852 -0.012111 
0.000479 0.019047 0.012778 
0.000241 0.019224 0.012802 
0.000000 0.019284 0.012804 
-0.000240 0.019224 0.012802 
-0.000478 0.019047 0.012777 
0.000244 0.018861 0.006258 
0.000122 0.019040 0.006277 
0.000000 0.019100 0.006282 
-0.000121 0.019040 0.006277 
-0.000244 0.018861 0.006257 
0.000000 0.018799 0.000000 
0.000000 0.018979 0.000000 
0.000000 0.019038 0.000000 
0.000000 0.018979 -0.000000 
0.000000 0.018798 -0.000000 
-0.000244 0.018861 -0.006257 
-0.000121 0.019040 -0.006277 
0.000000 0.019100 -0.006281 
0.000122 0.019040 -0.006277 
0.000245 0.018861 -0.006258 
-0.000478 0.019047 -0.012777 
-0.000240 0.019224 -0.012802 
0.000000 0.019284 -0.012804 
0.000241 0.019224 -0.012802 
0.000479 0.019047 -0.012778 
0.000460 0.021351 0.013419 
0.000231 0.021521 0.013444 
0.000000 0.021579 0.013446 
-0.000231 0.021521 0.013444 
-0.000459 0.021351 0.013419 
0.000235 0.021173 0.006578 
0.000117 0.021345 0.006598 
0.000000 0.021402 0.006602 
-0.000116 0.021345 0.006598 
-0.000234 0.021172 0.006578 
0.000000 0.021112 0.000000 
0.000000 0.021286 0.000000 
0.000000 0.021343 0.000000 
0.000000 0.021286 -0.000000 
0.000000 0.021112 -0.000000 
-0.000234 0.021173 -0.006578 
-0.000116 0.021345 -0.006597 
0.000000 0.021402 -0.006602 
0.000117 0.021345 -0.006598 
0.000235 0.021172 -0.006578 
-0.000459 0.021351 -0.013418 
-0.000230 0.021521 -0.013443 
0.000001 0.021579 -0.013446 
0.000231 0.021521 -0.013444 
0.000460 0.021351 -0.013419 
0.000441 0.023760 0.014034 
0.000222 0.023923 0.014059 
0.000000 0.023979 0.014061 
-0.000221 0.023923 0.014059 
-0.000440 0.023759 0.014034 
0.000225 0.023589 0.006886 
0.000112 0.023754 0.006906 
0.000000 0.023809 0.006910 
-0.000111 0.023754 0.006905 
-0.000224 0.023589 0.006885 
0.000000 0.023531 0.000000 
0.000000 0.023698 0.000000 
0.000000 0.023753 0.000000 
0.000000 0.023698 -0.000000 
0.000000 0.023531 -0.000000 
-0.000224 0.023589 -0.006885 
-0.000111 0.023754 -0.006905 
0.000001 0.023809 -0.006910 
0.000112 0.023754 -0.006905 
0.000225 0.023589 -0.006886 
-0.000440 0.023760 -0.014033 
-0.000221 0.023923 -0.014059 
0.000001 0.023979 -0.014061 
0.000222 0.023923 -0.014059 
0.000441 0.023759 -0.014034 
0.000422 0.026269 0.014623 
0.000212 0.026426 0.014648 
0.000000 0.026479 0.014651 
-0.000211 0.026425 0.014648 
-0.000421 0.026269 0.014623 
0.000215 0.026106 0.007180 
0.000107 0.026264 0.007200 
0.000000 0.026316 0.007205 
-0.000106 0.026263 0.007200 
-0.000214 0.026105 0.007180 
0.000001 0.026050 0.000000 
0.000000 0.026210 0.000000 
0.000000 0.026262 0.000000 
0.000000 0.026210 -0.000000 
0.000000 0.026050 -0.000000 
-0.000214 0.026106 -0.007179 
-0.000106 0.026264 -0.007200 
0.000001 0.026316 -0.007205 
0.000107 0.026263 -0.007200 
0.000215 0.026105 -0.007180 
-0.000421 0.026269 -0.014622 
-0.000211 0.026426 -0.014648 
0.000001 0.026479 -0.014650 
0.000212 0.026425 -0.014648 
0.000422 0.026269 -0.014623 
0.000403 0.028874 0.015186 
0.000202 0.029024 0.015211 
0.000000 0.029074 0.015214 
-0.000202 0.029024 0.015211 
-0.000402 0.028874 0.015185 
0.000205 0.028718 0.007462 
0.000102 0.028869 0.007482 
0.000000 0.028920 0.007486 
-0.000101 0.028869 0.007481 
-0.000205 0.028718 0.007461 
0.000001 0.028666 0.000000 
0.000001 0.028818 0.000000 
0.000001 0.028868 0.000000 
0.000001 0.028818 -0.000000 
0.000001 0.028665 -0.000000 
-0.000204 0.028718 -0.007461 
-0.000101 0.028869 -0.007481 
0.000001 0.028920 -0.007486 
0.000102 0.028869 -0.007481 
0.000206 0.028718 -0.007461 
-0.000402 0.028874 -0.015185 
-0.000201 0.029024 -0.015211 
0.000001 0.029074 -0.015213 
0.000203 0.029024 -0.015211 
0.000403 0.028874 -0.015186 
0.000384 0.031571 0.015723 
0.000193 0.031714 0.015748 
0.000000 0.031762 0.015750 
-0.000192 0.031714 0.015748 
-0.000383 0.031571 0.015722 
0.000196 0.031423 0.007730 
0.000097 0.031566 0.007750 
0.000001 0.031614 0.007755 
-0.000096 0.031566 0.007750 
-0.000195 0.031422 0.007729 
0.000001 0.031373 0.000000 
0.000001 0.031518 0.000000 
0.000001 0.031565 0.000000 
0.000001 0.031518 -0.000000 
0.000001 0.031372 -0.000000 
-0.000195 0.031423 -0.007729 
-0.000096 0.031566 -0.007749 
0.000001 0.031614 -0.007754 
0.000098 0.031566 -0.007750 
0.000196 0.031422 -0.007730 
-0.000382 0.031571 -0.015722 
-0.000192 0.031714 -0.015747 
0.000001 0.031762 -0.015750 
0.000193 0.031714 -0.015748 
0.000384 0.031571 -0.015722 
0.000364 0.034356 0.016233 
0.000183 0.034491 0.016258 
0.000000 0.034537 0.016261 
-0.000182 0.034491 0.016258 
-0.000364 0.034355 0.016233 
0.000186 0.034214 0.007985 
0.000093 0.034351 0.008005 
0.000001 0.034397 0.008010 
-0.000092 0.034351 0.008005 
-0.000185 0.034214 0.007985 
0.000001 0.034167 0.000000 
0.000001 0.034305 0.000000 
0.000001 0.034350 0.000000 
0.000001 0.034305 -0.000000 
0.000001 0.034166 -0.000000 
-0.000185 0.034214 -0.007984 
-0.000091 0.034351 -0.008005 
0.000001 0.034397 -0.008010 
0.000093 0.034351 -0.008005 
0.000186 0.034214 -0.007985 
-0.000363 0.034356 -0.016232 
-0.000182 0.034491 -0.016258 
0.000001 0.034537 -0.016261 
0.000184 0.034491 -0.016258 
0.000365 0.034355 -0.016233 
0.000345 0.037223 0.016718 
0.000174 0.037351 0.016743 
0.000001 0.037394 0.016745 
-0.000173 0.037351 0.016743 
-0.000344 0.037222 0.016717 
0.000176 0.037089 0.008227 
0.000088 0.037218 0.008247 
0.000001 0.037262 0.008252 
-0.000087 0.037218 0.008247 
-0.000175 0.037089 0.008227 
0.000001 0.037044 0.000000 
0.000001 0.037175 0.000000 
0.000001 0.037217 0.000000 
0.000001 0.037174 -0.000000 
0.000001 0.037044 -0.000000 
-0.000175 0.037089 -0.008226 
-0.000086 0.037218 -0.008247 
0.000001 0.037262 -0.008252 
0.000088 0.037218 -0.008247 
0.000176 0.037089 -0.008227 
-0.000344 0.037223 -0.016717 
-0.000172 0.037351 -0.016742 
0.000001 0.037394 -0.016745 
0.000174 0.037351 -0.016743 
0.000346 0.037222 -0.016717 
0.000326 0.040169 0.017176 
0.000164 0.040290 0.017201 
0.000001 0.040331 0.017204 
-0.000163 0.040289 0.017201 
-0.000325 0.040168 0.017175 
0.000167 0.040042 0.008456 
0.000083 0.040164 0.008476 
0.000001 0.040205 0.008481 
-0.000082 0.040164 0.008476 
-0.000165 0.040042 0.008456 
0.000001 0.040000 0.000000 
0.000001 0.040123 0.000000 
0.000001 0.040164 0.000000 
0.000001 0.040123 -0.000000 
0.000001 0.039999 -0.000000 
-0.000165 0.040042 -0.008456 
-0.000082 0.040164 -0.008476 
0.000001 0.040205 -0.008481 
0.000083 0.040164 -0.008476 
0.000167 0.040042 -0.008456 
-0.000325 0.040169 -0.017175 
-0.000163 0.040290 -0.017201 
0.000001 0.040331 -0.017203 
0.000165 0.040289 -0.017201 
0.000327 0.040168 -0.017175 
0.000307 0.043189 0.017608 
0.000155 0.043302 0.017633 
0.000001 0.043341 0.017636 
-0.000153 0.043302 0.017633 
-0.000306 0.043188 0.017607 
0.000157 0.043070 0.008672 
0.000078 0.043185 0.008693 
0.000001 0.043223 0.008697 
-0.000077 0.043184 0.008692 
-0.000155 0.043069 0.008672 
0.000001 0.043030 0.000000 
0.000001 0.043146 0.000000 
0.000001 0.043184 0.000000 
0.000001 0.043145 0.000000 
0.000001 0.043029 -0.000000 
-0.000155 0.043070 -0.008672 
-0.000077 0.043185 -0.008692 
0.000001 0.043223 -0.008697 
0.000078 0.043184 -0.008692 
0.000157 0.043069 -0.008672 
-0.000306 0.043189 -0.017607 
-0.000153 0.043302 -0.017633 
0.000001 0.043341 -0.017635 
0.000155 0.043302 -0.017633 
0.000308 0.043188 -0.017608 
0.000288 0.046278 0.018014 
0.000145 0.046385 0.018039 
0.000001 0.046421 0.018041 
-0.000144 0.046385 0.018039 
-0.000287 0.046278 0.018013 
0.000147 0.046167 0.008875 
0.000073 0.046275 0.008895 
0.000001 0.046311 0.008900 
-0.000072 0.046274 0.008895 
-0.000146 0.046166 0.008875 
0.000001 0.046129 0.000000 
0.000001 0.046238 0.000000 
0.000001 0.046274 0.000000 
0.000001 0.046238 0.000000 
0.000001 0.046129 -0.000000 
-0.000145 0.046167 -0.008875 
-0.000072 0.046275 -0.008895 
0.000001 0.046311 -0.008900 
0.000074 0.046274 -0.008895 
0.000147 0.046166 -0.008875 
-0.000286 0.046278 -0.018013 
-0.000143 0.046385 -0.018038 
0.000001 0.046421 -0.018041 
0.000145 0.046385 -0.018039 
0.000288 0.046278 -0.018013 
0.000269 0.049434 0.018393 
0.000135 0.049533 0.018419 
0.000001 0.049567 0.018421 
-0.000134 0.049533 0.018419 
-0.000268 0.049433 0.018393 
0.000137 0.049329 0.009065 
0.000069 0.049430 0.009085 
0.000001 0.049464 0.009090 
-0.000067 0.049430 0.009085 
-0.000136 0.049329 0.009065 
0.000001 0.049294 0.000000 
0.000001 0.049396 0.000000 
0.000001 0.049429 0.000000 
0.000001 0.049396 0.000000 
0.000001 0.049294 -0.000000 
-0.000136 0.049329 -0.009064 
-0.000067 0.049430 -0.009085 
0.000001 0.049464 -0.009090 
0.000069 0.049430 -0.009085 
0.000138 0.049329 -0.009065 
-0.000267 0.049434 -0.018393 
-0.000134 0.049533 -0.018418 
0.000001 0.049567 -0.018421 
0.000136 0.049533 -0.018418 
0.000269 0.049433 -0.018393 
0.000250 0.052650 0.018747 
0.000126 0.052742 0.018772 
0.000001 0.052774 0.018775 
-0.000124 0.052742 0.018772 
-0.000248 0.052650 0.018746 
0.000128 0.052553 0.009242 
0.000064 0.052647 0.009262 
0.000001 0.052678 0.009267 
-0.000062 0.052647 0.009262 
-0.000126 0.052553 0.009241 
0.000001 0.052521 0.000000 
0.000001 0.052615 0.000000 
0.000001 0.052646 0.000000 
0.000001 0.052615 0.000000 
0.000001 0.052520 -0.000000 
-0.000126 0.052553 -0.009241 